
  ___ ___ ___ _ _ _  
 |   |   |_  | | | | 
 | | | | | . | | | | 
 |__ |  _|___|_____|  22.8.1b1
 |___|_|             

User:   s183553@gbarlogin1
Date:   Wed Feb 22 08:48:32 2023
Arch:   x86_64
Pid:    31191
CWD:    /zhome/06/4/136859/dft_course
Python: 3.8.5
gpaw:   /zhome/06/4/136859/dft_venv/gpaw/gpaw (3d6f5cf366)
_gpaw:  /zhome/06/4/136859/dft_venv/gpaw/
        _gpaw.cpython-38-x86_64-linux-gnu.so (3d6f5cf366)
ase:    /zhome/06/4/136859/dft_venv/ase/ase (version 3.23.0b1-d4570ca33a)
numpy:  /zhome/06/4/136859/dft_venv/lib/python3.8/site-packages/numpy (version 1.24.1)
scipy:  /zhome/06/4/136859/dft_venv/lib/python3.8/site-packages/scipy (version 1.10.0)
libxc:  4.3.4
units:  Angstrom and eV
cores: 1
OpenMP: False
OMP_NUM_THREADS: 1

Input parameters:
  h: 0.25
  kpts: [5 5 1]
  nbands: 15

System changes: positions, numbers, cell, pbc, initial_charges, initial_magmoms 

Initialize ...

species:
  Al:
    name: Aluminium
    id: 2e6447feaea722efcff26bf034b25f30
    Z: 13.0
    valence: 3
    core: 10
    charge: 0.0
    file: /zhome/86/d/1666/PAW/gpaw-setups-0.9.20000/Al.LDA.gz
    compensation charges: {type: gauss,
                           rc: 0.34,
                           lmax: 2}
    cutoffs: {filter: 1.91,
              core: 2.36}
    valence states:
      #              energy  rcut
      - 3s(2.00)    -7.830   1.085
      - 3p(1.00)    -2.783   1.085
      -  s          19.382   1.085
      -  p          24.428   1.085
      -  d           0.000   1.085
  
    # Using partial waves for Al as LCAO basis

Reference energy: -32892.106537  # eV

Spin-paired calculation

Convergence criteria:
 Maximum [total energy] change in last 3 cyles: 0.0005 eV / valence electron
 Maximum integral of absolute [dens]ity change: 0.0001 electrons / valence electron
 Maximum integral of absolute [eigenst]ate change: 4e-08 eV^2 / valence electron
 Maximum number of scf [iter]ations: 333
 (Square brackets indicate name in SCF output, whereas a 'c' in
 the SCF output indicates the quantity has converged.)

Symmetries present (total): 16

  ( 1  0  0)  ( 1  0  0)  ( 1  0  0)  ( 1  0  0)  ( 0  1  0)  ( 0  1  0)
  ( 0  1  0)  ( 0  1  0)  ( 0 -1  0)  ( 0 -1  0)  ( 1  0  0)  ( 1  0  0)
  ( 0  0  1)  ( 0  0 -1)  ( 0  0  1)  ( 0  0 -1)  ( 0  0  1)  ( 0  0 -1)

  ( 0  1  0)  ( 0  1  0)  ( 0 -1  0)  ( 0 -1  0)  ( 0 -1  0)  ( 0 -1  0)
  (-1  0  0)  (-1  0  0)  ( 1  0  0)  ( 1  0  0)  (-1  0  0)  (-1  0  0)
  ( 0  0  1)  ( 0  0 -1)  ( 0  0  1)  ( 0  0 -1)  ( 0  0  1)  ( 0  0 -1)

  (-1  0  0)  (-1  0  0)  (-1  0  0)  (-1  0  0)
  ( 0  1  0)  ( 0  1  0)  ( 0 -1  0)  ( 0 -1  0)
  ( 0  0  1)  ( 0  0 -1)  ( 0  0  1)  ( 0  0 -1)

25 k-points: 5 x 5 x 1 Monkhorst-Pack grid
6 k-points in the irreducible part of the Brillouin zone
       k-points in crystal coordinates                weights
   0:     0.00000000    0.00000000    0.00000000          1/25
   1:     0.20000000    0.00000000    0.00000000          4/25
   2:     0.20000000    0.20000000    0.00000000          4/25
   3:     0.40000000    0.00000000    0.00000000          4/25
   4:     0.40000000    0.20000000    0.00000000          8/25
   5:     0.40000000    0.40000000    0.00000000          4/25

Wave functions: Uniform real-space grid
  Kinetic energy operator: 6*3+1=19 point O(h^6) finite-difference Laplacian
  ScaLapack parameters: grid=1x1, blocksize=None
  Wavefunction extrapolation:
    Improved wavefunction reuse through dual PAW basis 

Occupation numbers: Fermi-Dirac:
  width: 0.1000  # eV
 

Eigensolver
   Davidson(niter=2) 

Densities:
  Coarse grid: 12*12*92 grid
  Fine grid: 24*24*184 grid
  Total Charge: 0.000000 

Density mixing:
  Method: separate
  Backend: pulay
  Linear mixing parameter: 0.05
  old densities: 5
  Damping of long wavelength oscillations: 50 

Hamiltonian:
  XC and Coulomb potentials evaluated on a 24*24*184 grid
  Using the LDA Exchange-Correlation functional
  Interpolation: tri-quintic (5. degree polynomial)
  Poisson solver: FastPoissonSolver using
    Stencil: 6*3+1=19 point O(h^6) finite-difference Laplacian
    FFT axes: [0, 1]
    FST axes: [2]
 

Memory estimate:
  Process memory now: 94.16 MiB
  Calculator: 37.43 MiB
    Density: 11.98 MiB
      Arrays: 2.61 MiB
      Localized functions: 8.36 MiB
      Mixer: 1.00 MiB
    Hamiltonian: 2.33 MiB
      Arrays: 1.71 MiB
      XC: 0.00 MiB
      Poisson: 0.00 MiB
      vbar: 0.62 MiB
    Wavefunctions: 23.12 MiB
      Arrays psit_nG: 18.00 MiB
      Eigensolver: 4.03 MiB
      Projections: 0.09 MiB
      Projectors: 1.00 MiB

Total number of cores used: 1

Number of atoms: 5
Number of atomic orbitals: 20
Number of bands in calculation: 15
Number of valence electrons: 15
Bands to converge: occupied

... initialized

Initializing position-dependent things.

Density initialized from atomic densities
Creating initial wave functions:
  15 bands from LCAO basis set

   .------.  
  /|      |  
 * |      |  
 | |      |  
 | |      |  
 | |      |  
 | |      |  
 | |      |  
 | |      |  
 | |      |  
 | |      |  
 Al|      |  
 | |      |  
 | | Al   |  
 | |      |  
 | |      |  
 Al|      |  
 | | Al   |  
 | |      |  
 | |      |  
 | |      |  
 Al|      |  
 | |      |  
 | |      |  
 | |      |  
 | |      |  
 | |      |  
 | |      |  
 | .------.  
 |/      /   
 *------*    

Positions:
   0 Al     0.000000    0.000000    7.500000    ( 0.0000,  0.0000,  0.0000)
   1 Al     1.431891    1.431891    9.525000    ( 0.0000,  0.0000,  0.0000)
   2 Al     0.000000    0.000000   11.550000    ( 0.0000,  0.0000,  0.0000)
   3 Al     1.431891    1.431891   13.575000    ( 0.0000,  0.0000,  0.0000)
   4 Al     0.000000    0.000000   15.600000    ( 0.0000,  0.0000,  0.0000)

Unit cell:
           periodic     x           y           z      points  spacing
  1. axis:    yes    2.863782    0.000000    0.000000    12     0.2386
  2. axis:    yes    0.000000    2.863782    0.000000    12     0.2386
  3. axis:    no     0.000000    0.000000   23.100000    92     0.2511

  Lengths:   2.863782   2.863782  23.100000
  Angles:   90.000000  90.000000  90.000000

Effective grid spacing dv^(1/3) = 0.2427

     iter     time        total  log10-change:
                         energy  eigst   dens
iter:   1 08:48:34   -19.703424
iter:   2 08:48:35   -19.761704  +0.01  -0.94
iter:   3 08:48:37   -19.750726  -0.53  -0.96
iter:   4 08:48:38   -19.720853  -0.50  -1.02
iter:   5 08:48:39   -19.770244  -0.74  -1.38
iter:   6 08:48:40   -19.716030  -1.07  -1.42
iter:   7 08:48:41   -19.710351  -1.46  -1.90
iter:   8 08:48:42   -19.704172  -2.18  -1.89
iter:   9 08:48:43   -19.704545c -2.32  -2.37
iter:  10 08:48:44   -19.704391c -3.25  -2.73
iter:  11 08:48:45   -19.704845c -3.22  -2.78
iter:  12 08:48:46   -19.704612c -4.02  -2.54
iter:  13 08:48:47   -19.704464c -4.21  -2.69
iter:  14 08:48:48   -19.704352c -4.33  -2.81
iter:  15 08:48:49   -19.704374c -4.49  -2.88
iter:  16 08:48:50   -19.704413c -5.18  -2.95
iter:  17 08:48:51   -19.704372c -5.59  -3.18
iter:  18 08:48:52   -19.704331c -6.00  -3.59
iter:  19 08:48:53   -19.704341c -6.39  -3.69
iter:  20 08:48:54   -19.704336c -6.25  -3.76
iter:  21 08:48:55   -19.704341c -6.70  -3.98
iter:  22 08:48:56   -19.704338c -6.56  -4.13c
iter:  23 08:48:57   -19.704336c -7.26  -4.38c
iter:  24 08:48:58   -19.704333c -7.65c -4.40c

Converged after 24 iterations.

Dipole moment: (-1.793995, -1.793995, 0.000000) |e|*Ang

Energy contributions relative to reference atoms: (reference = -32892.106537)

Kinetic:        +16.995645
Potential:       -9.619778
External:        +0.000000
XC:             -27.012681
Entropy (-ST):   -0.078919
Local:           -0.028059
--------------------------
Free energy:    -19.743792
Extrapolated:   -19.704333

Showing only first 2 kpts
 Kpt  Band  Eigenvalues  Occupancy
  0     5     -6.60687    2.00000
  0     6     -3.55931    0.00007
  0     7     -1.42386    0.00000
  0     8     -0.20824    0.00000

  1     5     -5.94255    2.00000
  1     6     -4.38301    0.24044
  1     7     -3.45395    0.00003
  1     8     -2.86533    0.00000


Fermi level: -4.58205

No gap
Writing to slab_5.gpw (mode='')

Timing:                              incl.     excl.
-----------------------------------------------------------
Hamiltonian:                         0.126     0.000   0.0% |
 Atomic:                             0.070     0.001   0.0% |
  XC Correction:                     0.069     0.069   0.3% |
 Calculate atomic Hamiltonians:      0.003     0.003   0.0% |
 Communicate:                        0.000     0.000   0.0% |
 Hartree integrate/restrict:         0.003     0.003   0.0% |
 Initialize Hamiltonian:             0.001     0.001   0.0% |
 Poisson:                            0.028     0.002   0.0% |
  Communicate from 1D:               0.003     0.003   0.0% |
  Communicate from 2D:               0.002     0.002   0.0% |
  Communicate to 1D:                 0.003     0.003   0.0% |
  Communicate to 2D:                 0.005     0.005   0.0% |
  FFT 1D:                            0.007     0.007   0.0% |
  FFT 2D:                            0.006     0.006   0.0% |
 XC 3D grid:                         0.018     0.018   0.1% |
 vbar:                               0.004     0.004   0.0% |
LCAO initialization:                 0.374     0.022   0.1% |
 LCAO eigensolver:                   0.133     0.001   0.0% |
  Calculate projections:             0.000     0.000   0.0% |
  DenseAtomicCorrection:             0.001     0.001   0.0% |
  Distribute overlap matrix:         0.000     0.000   0.0% |
  Orbital Layouts:                   0.054     0.054   0.2% |
  Potential matrix:                  0.075     0.075   0.3% |
  Sum over cells:                    0.002     0.002   0.0% |
 LCAO to grid:                       0.054     0.054   0.2% |
 Set positions (LCAO WFS):           0.164     0.036   0.1% |
  Basic WFS set positions:           0.003     0.003   0.0% |
  Basis functions set positions:     0.000     0.000   0.0% |
  P tci:                             0.057     0.057   0.2% |
  ST tci:                            0.056     0.056   0.2% |
  mktci:                             0.014     0.014   0.1% |
SCF-cycle:                          24.746     0.157   0.6% |
 Davidson:                          20.854     9.477  36.6% |--------------|
  Apply hamiltonian:                 1.384     1.384   5.3% |-|
  Subspace diag:                     2.622     0.020   0.1% |
   calc_h_matrix:                    2.054     0.641   2.5% ||
    Apply hamiltonian:               1.414     1.414   5.5% |-|
   diagonalize:                      0.048     0.048   0.2% |
   rotate_psi:                       0.500     0.500   1.9% ||
  calc. matrices:                    6.265     3.488  13.5% |----|
   Apply hamiltonian:                2.776     2.776  10.7% |---|
  diagonalize:                       0.166     0.166   0.6% |
  rotate_psi:                        0.939     0.939   3.6% ||
 Density:                            0.696     0.001   0.0% |
  Atomic density matrices:           0.061     0.061   0.2% |
  Mix:                               0.198     0.198   0.8% |
  Multipole moments:                 0.006     0.006   0.0% |
  Pseudo density:                    0.431     0.109   0.4% |
   Symmetrize density:               0.322     0.322   1.2% |
 Hamiltonian:                        2.959     0.002   0.0% |
  Atomic:                            1.777     0.028   0.1% |
   XC Correction:                    1.749     1.749   6.8% |--|
  Calculate atomic Hamiltonians:     0.073     0.073   0.3% |
  Communicate:                       0.000     0.000   0.0% |
  Hartree integrate/restrict:        0.060     0.060   0.2% |
  Poisson:                           0.626     0.037   0.1% |
   Communicate from 1D:              0.066     0.066   0.3% |
   Communicate from 2D:              0.040     0.040   0.2% |
   Communicate to 1D:                0.063     0.063   0.2% |
   Communicate to 2D:                0.120     0.120   0.5% |
   FFT 1D:                           0.155     0.155   0.6% |
   FFT 2D:                           0.144     0.144   0.6% |
  XC 3D grid:                        0.404     0.404   1.6% ||
  vbar:                              0.017     0.017   0.1% |
 Orthonormalize:                     0.080     0.001   0.0% |
  calc_s_matrix:                     0.015     0.015   0.1% |
  inverse-cholesky:                  0.001     0.001   0.0% |
  projections:                       0.050     0.050   0.2% |
  rotate_psi_s:                      0.013     0.013   0.1% |
Set symmetry:                        0.007     0.007   0.0% |
Other:                               0.640     0.640   2.5% ||
-----------------------------------------------------------
Total:                                        25.892 100.0%

Memory usage: 140.92 MiB
Date: Wed Feb 22 08:48:58 2023
