
  ___ ___ ___ _ _ _  
 |   |   |_  | | | | 
 | | | | | . | | | | 
 |__ |  _|___|_____|  22.8.1b1
 |___|_|             

User:   s183553@n-62-28-27
Date:   Wed Feb 22 16:26:22 2023
Arch:   x86_64
Pid:    24575
CWD:    /zhome/06/4/136859/dft_course/CX3/structure_opt
Python: 3.8.5
gpaw:   /zhome/06/4/136859/dft_venv/gpaw/gpaw (3d6f5cf366)
_gpaw:  /zhome/06/4/136859/dft_venv/gpaw/
        _gpaw.cpython-38-x86_64-linux-gnu.so (3d6f5cf366)
ase:    /zhome/06/4/136859/dft_venv/ase/ase (version 3.23.0b1-d4570ca33a)
numpy:  /zhome/06/4/136859/dft_venv/lib/python3.8/site-packages/numpy (version 1.24.1)
scipy:  /zhome/06/4/136859/dft_venv/lib/python3.8/site-packages/scipy (version 1.10.0)
libxc:  4.3.4
units:  Angstrom and eV
cores: 12
OpenMP: False
OMP_NUM_THREADS: 1

Reading from H2.gpw
Read dipole, energy, free_energy, magmom, magmoms
Reading input parameters:
  eigensolver: rmm-diis
  mode: {ecut: 340.0,
         name: pw}
  occupations: {name: fermi-dirac,
                width: 0.0}
  xc: PBE

Initialize ...

species:
  H:
    name: Hydrogen
    id: d65de229564ff8ea4db303e23b6d1ecf
    Z: 1.0
    valence: 1
    core: 0
    charge: 0.0
    file: /zhome/86/d/1666/PAW/gpaw-setups-0.9.20000/H.PBE.gz
    compensation charges: {type: gauss,
                           rc: 0.15,
                           lmax: 2}
    cutoffs: {filter: 0.85,
              core: 0.53}
    valence states:
      #              energy  rcut
      - 1s(1.00)    -6.494   0.476
      -  s          20.717   0.476
      -  p           0.000   0.476
  
    # Using partial waves for H as LCAO basis

Reference energy: -24.980324  # eV

Spin-paired calculation

Convergence criteria:
 Maximum [total energy] change in last 3 cyles: 0.0005 eV / valence electron
 Maximum integral of absolute [dens]ity change: 0.0001 electrons / valence electron
 Maximum integral of absolute [eigenst]ate change: 4e-08 eV^2 / valence electron
 Maximum number of scf [iter]ations: 333
 (Square brackets indicate name in SCF output, whereas a 'c' in
 the SCF output indicates the quantity has converged.)

Symmetries present (total): 16

  ( 1  0  0)  ( 1  0  0)  ( 1  0  0)  ( 1  0  0)  ( 1  0  0)  ( 1  0  0)
  ( 0  1  0)  ( 0  1  0)  ( 0  0  1)  ( 0  0  1)  ( 0  0 -1)  ( 0  0 -1)
  ( 0  0  1)  ( 0  0 -1)  ( 0  1  0)  ( 0 -1  0)  ( 0  1  0)  ( 0 -1  0)

  ( 1  0  0)  ( 1  0  0)  (-1  0  0)  (-1  0  0)  (-1  0  0)  (-1  0  0)
  ( 0 -1  0)  ( 0 -1  0)  ( 0  1  0)  ( 0  1  0)  ( 0  0  1)  ( 0  0  1)
  ( 0  0  1)  ( 0  0 -1)  ( 0  0  1)  ( 0  0 -1)  ( 0  1  0)  ( 0 -1  0)

  (-1  0  0)  (-1  0  0)  (-1  0  0)  (-1  0  0)
  ( 0  0 -1)  ( 0  0 -1)  ( 0 -1  0)  ( 0 -1  0)
  ( 0  1  0)  ( 0 -1  0)  ( 0  0  1)  ( 0  0 -1)

1 k-point (Gamma)
1 k-point in the irreducible part of the Brillouin zone
       k-points in crystal coordinates                weights
   0:     0.00000000    0.00000000    0.00000000          1/1

Wave functions: Plane wave expansion
  Cutoff energy: 340.000 eV
  Number of coefficients: 14243 (reduced to 7122)
  Pulay-stress correction: 0.000000 eV/Ang^3 (de/decut=0.000000)
  Using FFTW library
  ScaLapack parameters: grid=1x1, blocksize=None
  Wavefunction extrapolation:
    Improved wavefunction reuse through dual PAW basis 

Occupation numbers: # Zero width 

Eigensolver
   RMM-DIIS eigensolver
       keep_htpsit: True
       DIIS iterations: 3
       Threshold for DIIS: 1.0e-16
       Limit lambda: False
       use_rayleigh: False
       trial_step: 0.1 

Densities:
  Coarse grid: 45*45*45 grid
  Fine grid: 90*90*90 grid
  Total Charge: 0.000000 

Density mixing:
  Method: separate
  Backend: pulay
  Linear mixing parameter: 0.05
  old densities: 5
  Damping of long wavelength oscillations: 50 

Hamiltonian:
  XC and Coulomb potentials evaluated on a 90*90*90 grid
  Using the PBE Exchange-Correlation functional
  External potential:
    NoExternalPotential
 

XC parameters: PBE with 2 nearest neighbor stencil

Memory estimate:
  Process memory now: 132.34 MiB
  Calculator: 6.29 MiB
    Density: 3.37 MiB
      Arrays: 1.51 MiB
      Localized functions: 1.25 MiB
      Mixer: 0.61 MiB
    Hamiltonian: 1.01 MiB
      Arrays: 0.99 MiB
      XC: 0.00 MiB
      Poisson: 0.00 MiB
      vbar: 0.03 MiB
    Wavefunctions: 1.91 MiB
      Arrays psit_nG: 0.02 MiB
      Eigensolver: 0.06 MiB
      Projections: 0.00 MiB
      Projectors: 0.03 MiB
      PW-descriptor: 1.80 MiB

Total number of cores used: 12
Domain decomposition: 3 x 2 x 2

Number of atoms: 2
Number of atomic orbitals: 2
Number of bands in calculation: 2
Number of valence electrons: 2
Bands to converge: occupied

... initialized

Initializing position-dependent things.

Creating initial wave functions:
  2 bands from LCAO basis set

       .------------------------.  
      /|                        |  
     / |                        |  
    /  |                        |  
   /   |                        |  
  /    |                        |  
 *     |                        |  
 |     |                        |  
 |     |                        |  
 |     |        HH              |  
 |     |                        |  
 |     |                        |  
 |     .------------------------.  
 |    /                        /   
 |   /                        /    
 |  /                        /     
 | /                        /      
 |/                        /       
 *------------------------*        

Positions:
   0 H      4.630000    5.000000    5.000000    ( 0.0000,  0.0000,  0.0000)
   1 H      5.370000    5.000000    5.000000    ( 0.0000,  0.0000,  0.0000)

Unit cell:
           periodic     x           y           z      points  spacing
  1. axis:    no    10.000000    0.000000    0.000000    45     0.2222
  2. axis:    no     0.000000   10.000000    0.000000    45     0.2222
  3. axis:    no     0.000000    0.000000   10.000000    45     0.2222

  Lengths:  10.000000  10.000000  10.000000
  Angles:   90.000000  90.000000  90.000000

Effective grid spacing dv^(1/3) = 0.2222

     iter     time        total  log10-change:
                         energy  eigst   dens
iter:   1 16:26:24    -5.300362  +1.30
iter:   2 16:26:24    -6.634946  -0.58  -1.84
iter:   3 16:26:24    -6.649226  -3.32  -3.34
iter:   4 16:26:24    -6.649257  -5.61  -3.08
iter:   5 16:26:24    -6.649257c -7.26  -3.07
iter:   6 16:26:25    -6.649255c -5.73  -3.05
iter:   7 16:26:25    -6.649255c -5.17  -3.28
iter:   8 16:26:25    -6.649255c -6.54  -3.73
iter:   9 16:26:25    -6.649255c -7.39  -4.23c
iter:  10 16:26:25    -6.649255c -9.27c -4.94c

Converged after 10 iterations.

Dipole moment: (-0.000000, 0.000000, 0.000000) |e|*Ang

Energy contributions relative to reference atoms: (reference = -24.980324)

Kinetic:         +6.253074
Potential:       -7.838175
External:        +0.000000
XC:              -5.057971
Entropy (-ST):   +0.000000
Local:           -0.006183
--------------------------
Free energy:     -6.649255
Extrapolated:    -6.649255

 Band  Eigenvalues  Occupancy
    0    -10.33357    2.00000
    1      0.40894    0.00000

Fermi level: -4.96232

Gap: 10.743 eV
Transition (v -> c):
  (s=0, k=0, n=0, [0.00, 0.00, 0.00]) -> (s=0, k=0, n=1, [0.00, 0.00, 0.00])

Forces in eV/Ang:
  0 H    -0.50760    0.00000    0.00000
  1 H     0.50760    0.00000    0.00000

System changes: positions 

Initializing position-dependent things.

Density initialized from wave functions
       .------------------------.  
      /|                        |  
     / |                        |  
    /  |                        |  
   /   |                        |  
  /    |                        |  
 *     |                        |  
 |     |                        |  
 |     |                        |  
 |     |       H  H             |  
 |     |                        |  
 |     |                        |  
 |     .------------------------.  
 |    /                        /   
 |   /                        /    
 |  /                        /     
 | /                        /      
 |/                        /       
 *------------------------*        

Positions:
   0 H      4.579240    5.000000    5.000000    ( 0.0000,  0.0000,  0.0000)
   1 H      5.420760    5.000000    5.000000    ( 0.0000,  0.0000,  0.0000)

Unit cell:
           periodic     x           y           z      points  spacing
  1. axis:    no    10.000000    0.000000    0.000000    45     0.2222
  2. axis:    no     0.000000   10.000000    0.000000    45     0.2222
  3. axis:    no     0.000000    0.000000   10.000000    45     0.2222

  Lengths:  10.000000  10.000000  10.000000
  Angles:   90.000000  90.000000  90.000000

Effective grid spacing dv^(1/3) = 0.2222

     iter     time        total  log10-change:
                         energy  eigst   dens
iter:   1 16:26:26    -6.516393  -0.07
iter:   2 16:26:26    -6.550899  -2.74  -1.40
iter:   3 16:26:26    -6.547364  -1.90  -1.43
iter:   4 16:26:26    -6.548549  -4.02  -2.20
iter:   5 16:26:27    -6.548511  -3.99  -2.22
iter:   6 16:26:27    -6.548529c -4.49  -2.50
iter:   7 16:26:27    -6.548530c -6.10  -3.52
iter:   8 16:26:27    -6.548530c -6.90  -3.91
iter:   9 16:26:27    -6.548530c -9.26c -5.10c

Converged after 9 iterations.

Dipole moment: (-0.000000, 0.000000, 0.000000) |e|*Ang

Energy contributions relative to reference atoms: (reference = -24.980324)

Kinetic:         +3.940185
Potential:       -6.236384
External:        +0.000000
XC:              -4.245247
Entropy (-ST):   +0.000000
Local:           -0.007084
--------------------------
Free energy:     -6.548530
Extrapolated:    -6.548530

 Band  Eigenvalues  Occupancy
    0     -9.87555    2.00000
    1      0.04904    0.00000

Fermi level: -4.91325

Gap: 9.925 eV
Transition (v -> c):
  (s=0, k=0, n=0, [0.00, 0.00, 0.00]) -> (s=0, k=0, n=1, [0.00, 0.00, 0.00])

Forces in eV/Ang:
  0 H     2.20190   -0.00000    0.00000
  1 H    -2.20190    0.00000    0.00000

System changes: positions 

Initializing position-dependent things.

Density initialized from wave functions
       .------------------------.  
      /|                        |  
     / |                        |  
    /  |                        |  
   /   |                        |  
  /    |                        |  
 *     |                        |  
 |     |                        |  
 |     |                        |  
 |     |        HH              |  
 |     |                        |  
 |     |                        |  
 |     .------------------------.  
 |    /                        /   
 |   /                        /    
 |  /                        /     
 | /                        /      
 |/                        /       
 *------------------------*        

Positions:
   0 H      4.622535    5.000000    5.000000    ( 0.0000,  0.0000,  0.0000)
   1 H      5.377465    5.000000    5.000000    ( 0.0000,  0.0000,  0.0000)

Unit cell:
           periodic     x           y           z      points  spacing
  1. axis:    no    10.000000    0.000000    0.000000    45     0.2222
  2. axis:    no     0.000000   10.000000    0.000000    45     0.2222
  3. axis:    no     0.000000    0.000000   10.000000    45     0.2222

  Lengths:  10.000000  10.000000  10.000000
  Angles:   90.000000  90.000000  90.000000

Effective grid spacing dv^(1/3) = 0.2222

     iter     time        total  log10-change:
                         energy  eigst   dens
iter:   1 16:26:27    -6.631832  -0.25
iter:   2 16:26:28    -6.655737  -2.80  -1.47
iter:   3 16:26:28    -6.651890  -1.96  -1.50
iter:   4 16:26:28    -6.652877  -4.15  -2.36
iter:   5 16:26:28    -6.652907  -4.77  -2.38
iter:   6 16:26:28    -6.652913c -4.93  -2.74
iter:   7 16:26:29    -6.652914c -5.93  -4.04c
iter:   8 16:26:29    -6.652913c -6.04  -3.50
iter:   9 16:26:29    -6.652913c -7.26  -4.28c
iter:  10 16:26:29    -6.652913c -9.13c -5.29c

Converged after 10 iterations.

Dipole moment: (-0.000000, 0.000000, 0.000000) |e|*Ang

Energy contributions relative to reference atoms: (reference = -24.980324)

Kinetic:         +5.874596
Potential:       -7.590523
External:        +0.000000
XC:              -4.930693
Entropy (-ST):   +0.000000
Local:           -0.006293
--------------------------
Free energy:     -6.652913
Extrapolated:    -6.652913

 Band  Eigenvalues  Occupancy
    0    -10.26178    2.00000
    1      0.36211    0.00000

Fermi level: -4.94984

Gap: 10.624 eV
Transition (v -> c):
  (s=0, k=0, n=0, [0.00, 0.00, 0.00]) -> (s=0, k=0, n=1, [0.00, 0.00, 0.00])

Forces in eV/Ang:
  0 H     0.00916    0.00000    0.00000
  1 H    -0.00916    0.00000    0.00000

Timing:                                      incl.     excl.
-------------------------------------------------------------------
Density initialized from wave functions:     0.209     0.036   0.5% |
 Symmetrize density:                         0.172     0.172   2.4% ||
Forces:                                      0.054     0.054   0.8% |
Hamiltonian:                                 0.185     0.007   0.1% |
 Atomic:                                     0.001     0.001   0.0% |
  XC Correction:                             0.000     0.000   0.0% |
 Calculate atomic Hamiltonians:              0.007     0.007   0.1% |
 Communicate:                                0.057     0.057   0.8% |
 Poisson:                                    0.001     0.001   0.0% |
 XC 3D grid:                                 0.112     0.112   1.6% ||
LCAO initialization:                         0.017     0.005   0.1% |
 LCAO eigensolver:                           0.004     0.000   0.0% |
  Calculate projections:                     0.000     0.000   0.0% |
  DenseAtomicCorrection:                     0.000     0.000   0.0% |
  Distribute overlap matrix:                 0.000     0.000   0.0% |
  Orbital Layouts:                           0.003     0.003   0.0% |
  Potential matrix:                          0.000     0.000   0.0% |
 LCAO to grid:                               0.003     0.003   0.0% |
 Set positions (LCAO WFS):                   0.005     0.002   0.0% |
  Basic WFS set positions:                   0.001     0.001   0.0% |
  Basis functions set positions:             0.000     0.000   0.0% |
  P tci:                                     0.000     0.000   0.0% |
  ST tci:                                    0.000     0.000   0.0% |
  mktci:                                     0.002     0.002   0.0% |
PWDescriptor:                                0.164     0.164   2.3% ||
Redistribute:                                0.002     0.002   0.0% |
SCF-cycle:                                   4.743     0.015   0.2% |
 Density:                                    2.730     0.001   0.0% |
  Atomic density matrices:                   0.016     0.016   0.2% |
  Mix:                                       0.395     0.395   5.6% |-|
  Multipole moments:                         0.003     0.003   0.0% |
  Pseudo density:                            2.316     0.072   1.0% |
   Symmetrize density:                       2.244     2.244  31.8% |------------|
 Hamiltonian:                                1.600     0.059   0.8% |
  Atomic:                                    0.007     0.007   0.1% |
   XC Correction:                            0.000     0.000   0.0% |
  Calculate atomic Hamiltonians:             0.063     0.063   0.9% |
  Communicate:                               0.491     0.491   6.9% |--|
  Poisson:                                   0.010     0.010   0.1% |
  XC 3D grid:                                0.971     0.971  13.7% |----|
 Orthonormalize:                             0.017     0.003   0.0% |
  calc_s_matrix:                             0.005     0.005   0.1% |
  inverse-cholesky:                          0.004     0.004   0.1% |
  projections:                               0.005     0.005   0.1% |
  rotate_psi_s:                              0.001     0.001   0.0% |
 RMM-DIIS:                                   0.263     0.010   0.1% |
  Apply H:                                   0.098     0.097   1.4% ||
   HMM T:                                    0.001     0.001   0.0% |
  Calculate residuals:                       0.017     0.017   0.2% |
  DIIS step:                                 0.120     0.002   0.0% |
   Calculate residuals:                      0.107     0.013   0.2% |
    Apply H:                                 0.094     0.093   1.3% ||
     HMM T:                                  0.001     0.001   0.0% |
   Construct matrix:                         0.005     0.005   0.1% |
   Linear solve:                             0.002     0.002   0.0% |
   Update trial vectors:                     0.003     0.003   0.0% |
   precondition:                             0.001     0.001   0.0% |
  Find lambda:                               0.006     0.006   0.1% |
  Update psi:                                0.002     0.002   0.0% |
  precondition:                              0.005     0.005   0.1% |
  projections:                               0.005     0.005   0.1% |
 Subspace diag:                              0.117     0.003   0.0% |
  calc_h_matrix:                             0.107     0.007   0.1% |
   Apply H:                                  0.101     0.100   1.4% ||
    HMM T:                                   0.001     0.001   0.0% |
  diagonalize:                               0.005     0.005   0.1% |
  rotate_psi:                                0.002     0.002   0.0% |
Set symmetry:                                0.004     0.004   0.1% |
Other:                                       1.689     1.689  23.9% |---------|
-------------------------------------------------------------------
Total:                                                 7.066 100.0%

Memory usage: 134.48 MiB
Date: Wed Feb 22 16:26:29 2023
