
  ___ ___ ___ _ _ _  
 |   |   |_  | | | | 
 | | | | | . | | | | 
 |__ |  _|___|_____|  22.8.1b1
 |___|_|             

User:   s183553@n-62-28-33
Date:   Wed Feb  8 16:53:13 2023
Arch:   x86_64
Pid:    17572
CWD:    /zhome/06/4/136859/dft_course/CX1_CX2
Python: 3.8.5
gpaw:   /zhome/06/4/136859/dft_venv/gpaw/gpaw (3d6f5cf366)
_gpaw:  /zhome/06/4/136859/dft_venv/gpaw/
        _gpaw.cpython-38-x86_64-linux-gnu.so (3d6f5cf366)
ase:    /zhome/06/4/136859/dft_venv/ase/ase (version 3.23.0b1-d4570ca33a)
numpy:  /zhome/06/4/136859/dft_venv/lib/python3.8/site-packages/numpy (version 1.24.1)
scipy:  /zhome/06/4/136859/dft_venv/lib/python3.8/site-packages/scipy (version 1.10.0)
libxc:  4.3.4
units:  Angstrom and eV
cores: 12
OpenMP: False
OMP_NUM_THREADS: 1

Input parameters:
  h: 0.2
  mode: {ecut: 350.0,
         name: pw}

Input parameters:
  mode: {ecut: 350.0,
         name: pw}

System changes: positions, numbers, cell, pbc, initial_charges, initial_magmoms 

Initialize ...

species:
  H:
    name: Hydrogen
    id: 4766778ce56282eaa64abeb28b7c1de3
    Z: 1.0
    valence: 1
    core: 0
    charge: 0.0
    file: /zhome/86/d/1666/PAW/gpaw-setups-0.9.20000/H.LDA.gz
    compensation charges: {type: gauss,
                           rc: 0.15,
                           lmax: 2}
    cutoffs: {filter: 0.85,
              core: 0.53}
    valence states:
      #              energy  rcut
      - 1s(1.00)    -6.353   0.476
      -  s          20.858   0.476
      -  p           0.000   0.476
  
    # Using partial waves for H as LCAO basis

Reference energy: -24.257917  # eV

Spin-paired calculation

Convergence criteria:
 Maximum [total energy] change in last 3 cyles: 0.0005 eV / valence electron
 Maximum integral of absolute [dens]ity change: 0.0001 electrons / valence electron
 Maximum integral of absolute [eigenst]ate change: 4e-08 eV^2 / valence electron
 Maximum number of scf [iter]ations: 333
 (Square brackets indicate name in SCF output, whereas a 'c' in
 the SCF output indicates the quantity has converged.)

Symmetries present (total): 16

  ( 1  0  0)  ( 1  0  0)  ( 1  0  0)  ( 1  0  0)  ( 0  1  0)  ( 0  1  0)
  ( 0  1  0)  ( 0  1  0)  ( 0 -1  0)  ( 0 -1  0)  ( 1  0  0)  ( 1  0  0)
  ( 0  0  1)  ( 0  0 -1)  ( 0  0  1)  ( 0  0 -1)  ( 0  0  1)  ( 0  0 -1)

  ( 0  1  0)  ( 0  1  0)  ( 0 -1  0)  ( 0 -1  0)  ( 0 -1  0)  ( 0 -1  0)
  (-1  0  0)  (-1  0  0)  ( 1  0  0)  ( 1  0  0)  (-1  0  0)  (-1  0  0)
  ( 0  0  1)  ( 0  0 -1)  ( 0  0  1)  ( 0  0 -1)  ( 0  0  1)  ( 0  0 -1)

  (-1  0  0)  (-1  0  0)  (-1  0  0)  (-1  0  0)
  ( 0  1  0)  ( 0  1  0)  ( 0 -1  0)  ( 0 -1  0)
  ( 0  0  1)  ( 0  0 -1)  ( 0  0  1)  ( 0  0 -1)

1 k-point (Gamma)
1 k-point in the irreducible part of the Brillouin zone
       k-points in crystal coordinates                weights
   0:     0.00000000    0.00000000    0.00000000          1/1

Wave functions: Plane wave expansion
  Cutoff energy: 350.000 eV
  Number of coefficients: 4253 (reduced to 2127)
  Pulay-stress correction: 0.000000 eV/Ang^3 (de/decut=0.000000)
  Using FFTW library
  ScaLapack parameters: grid=1x1, blocksize=None
  Wavefunction extrapolation:
    Improved wavefunction reuse through dual PAW basis 

Occupation numbers: # Zero width 

Eigensolver
   Davidson(niter=2) 

Densities:
  Coarse grid: 30*30*40 grid
  Fine grid: 60*60*80 grid
  Total Charge: 0.000000 

Density mixing:
  Method: separate
  Backend: pulay
  Linear mixing parameter: 0.05
  old densities: 5
  Damping of long wavelength oscillations: 50 

Hamiltonian:
  XC and Coulomb potentials evaluated on a 60*60*80 grid
  Using the LDA Exchange-Correlation functional
  External potential:
    NoExternalPotential
 

Memory estimate:
  Process memory now: 113.01 MiB
  Calculator: 2.59 MiB
    Density: 1.43 MiB
      Arrays: 0.60 MiB
      Localized functions: 0.59 MiB
      Mixer: 0.24 MiB
    Hamiltonian: 0.41 MiB
      Arrays: 0.39 MiB
      XC: 0.00 MiB
      Poisson: 0.00 MiB
      vbar: 0.01 MiB
    Wavefunctions: 0.75 MiB
      Arrays psit_nG: 0.01 MiB
      Eigensolver: 0.02 MiB
      Projections: 0.00 MiB
      Projectors: 0.01 MiB
      PW-descriptor: 0.72 MiB

Total number of cores used: 12
Domain decomposition: 2 x 2 x 3

Number of atoms: 2
Number of atomic orbitals: 2
Number of bands in calculation: 2
Number of valence electrons: 2
Bands to converge: occupied

... initialized

Initializing position-dependent things.

Density initialized from atomic densities
Creating initial wave functions:
  2 bands from LCAO basis set

     .--------------.  
    /|              |  
   / |              |  
  /  |              |  
 *   |              |  
 |   |              |  
 |   |    H         |  
 |   |              |  
 |   |    H         |  
 |   |              |  
 |   .--------------.  
 |  /              /   
 | /              /    
 |/              /     
 *--------------*      

Positions:
   0 H      3.000000    3.000000    3.000000    ( 0.0000,  0.0000,  0.0000)
   1 H      3.000000    3.000000    5.000000    ( 0.0000,  0.0000,  0.0000)

Unit cell:
           periodic     x           y           z      points  spacing
  1. axis:    no     6.000000    0.000000    0.000000    30     0.2000
  2. axis:    no     0.000000    6.000000    0.000000    30     0.2000
  3. axis:    no     0.000000    0.000000    8.000000    40     0.2000

  Lengths:   6.000000   6.000000   8.000000
  Angles:   90.000000  90.000000  90.000000

Effective grid spacing dv^(1/3) = 0.2000

     iter     time        total  log10-change:
                         energy  eigst   dens
iter:   1 16:53:15    -2.340085
iter:   2 16:53:15    -2.337522  -2.38  -0.74
iter:   3 16:53:15    -2.308811  -2.44  -0.76
iter:   4 16:53:15    -2.306625  -3.02  -1.30
iter:   5 16:53:15    -2.306603  -4.83  -2.13
iter:   6 16:53:15    -2.306660c -4.39  -2.15
iter:   7 16:53:15    -2.306644c -5.63  -2.40
iter:   8 16:53:15    -2.306647c -6.11  -2.97
iter:   9 16:53:15    -2.306644c -6.01  -2.69
iter:  10 16:53:16    -2.306644c -7.52c -3.95
iter:  11 16:53:16    -2.306644c -8.54c -4.01c

Converged after 11 iterations.

Dipole moment: (-0.000000, -0.000000, 0.000000) |e|*Ang

Energy contributions relative to reference atoms: (reference = -24.257917)

Kinetic:         -3.564113
Potential:       +1.375780
External:        +0.000000
XC:              -0.115760
Entropy (-ST):   +0.000000
Local:           -0.002551
--------------------------
Free energy:     -2.306644
Extrapolated:    -2.306644

 Band  Eigenvalues  Occupancy
    0     -7.27676    2.00000
    1     -4.72656    0.00000

Fermi level: -6.00166

Gap: 2.550 eV
Transition (v -> c):
  (s=0, k=0, n=0, [0.00, 0.00, 0.00]) -> (s=0, k=0, n=1, [0.00, 0.00, 0.00])
Input parameters:
  mode: {ecut: 450.00000000000006,
         name: pw}

Initialize ...

species:
  H:
    name: Hydrogen
    id: 4766778ce56282eaa64abeb28b7c1de3
    Z: 1.0
    valence: 1
    core: 0
    charge: 0.0
    file: /zhome/86/d/1666/PAW/gpaw-setups-0.9.20000/H.LDA.gz
    compensation charges: {type: gauss,
                           rc: 0.15,
                           lmax: 2}
    cutoffs: {filter: 0.85,
              core: 0.53}
    valence states:
      #              energy  rcut
      - 1s(1.00)    -6.353   0.476
      -  s          20.858   0.476
      -  p           0.000   0.476
  
    # Using partial waves for H as LCAO basis

Reference energy: -24.257917  # eV

Spin-paired calculation

Convergence criteria:
 Maximum [total energy] change in last 3 cyles: 0.0005 eV / valence electron
 Maximum integral of absolute [dens]ity change: 0.0001 electrons / valence electron
 Maximum integral of absolute [eigenst]ate change: 4e-08 eV^2 / valence electron
 Maximum number of scf [iter]ations: 333
 (Square brackets indicate name in SCF output, whereas a 'c' in
 the SCF output indicates the quantity has converged.)

Symmetries present (total): 16

  ( 1  0  0)  ( 1  0  0)  ( 1  0  0)  ( 1  0  0)  ( 0  1  0)  ( 0  1  0)
  ( 0  1  0)  ( 0  1  0)  ( 0 -1  0)  ( 0 -1  0)  ( 1  0  0)  ( 1  0  0)
  ( 0  0  1)  ( 0  0 -1)  ( 0  0  1)  ( 0  0 -1)  ( 0  0  1)  ( 0  0 -1)

  ( 0  1  0)  ( 0  1  0)  ( 0 -1  0)  ( 0 -1  0)  ( 0 -1  0)  ( 0 -1  0)
  (-1  0  0)  (-1  0  0)  ( 1  0  0)  ( 1  0  0)  (-1  0  0)  (-1  0  0)
  ( 0  0  1)  ( 0  0 -1)  ( 0  0  1)  ( 0  0 -1)  ( 0  0  1)  ( 0  0 -1)

  (-1  0  0)  (-1  0  0)  (-1  0  0)  (-1  0  0)
  ( 0  1  0)  ( 0  1  0)  ( 0 -1  0)  ( 0 -1  0)
  ( 0  0  1)  ( 0  0 -1)  ( 0  0  1)  ( 0  0 -1)

1 k-point (Gamma)
1 k-point in the irreducible part of the Brillouin zone
       k-points in crystal coordinates                weights
   0:     0.00000000    0.00000000    0.00000000          1/1

Wave functions: Plane wave expansion
  Cutoff energy: 450.000 eV
  Number of coefficients: 6231 (reduced to 3116)
  Pulay-stress correction: 0.000000 eV/Ang^3 (de/decut=0.000000)
  Using FFTW library
  ScaLapack parameters: grid=1x1, blocksize=None
  Wavefunction extrapolation:
    Improved wavefunction reuse through dual PAW basis 

Occupation numbers: # Zero width 

Eigensolver
   Davidson(niter=2) 

Densities:
  Coarse grid: 30*30*40 grid
  Fine grid: 60*60*80 grid
  Total Charge: 0.000000 

Density mixing:
  Method: separate
  Backend: pulay
  Linear mixing parameter: 0.05
  old densities: 5
  Damping of long wavelength oscillations: 50 

Hamiltonian:
  XC and Coulomb potentials evaluated on a 60*60*80 grid
  Using the LDA Exchange-Correlation functional
  External potential:
    NoExternalPotential
 

Memory estimate:
  Process memory now: 119.48 MiB
  Calculator: 2.61 MiB
    Density: 1.43 MiB
      Arrays: 0.60 MiB
      Localized functions: 0.59 MiB
      Mixer: 0.24 MiB
    Hamiltonian: 0.41 MiB
      Arrays: 0.39 MiB
      XC: 0.00 MiB
      Poisson: 0.00 MiB
      vbar: 0.01 MiB
    Wavefunctions: 0.77 MiB
      Arrays psit_nG: 0.01 MiB
      Eigensolver: 0.03 MiB
      Projections: 0.00 MiB
      Projectors: 0.01 MiB
      PW-descriptor: 0.72 MiB

Total number of cores used: 12
Domain decomposition: 2 x 2 x 3

Number of atoms: 2
Number of atomic orbitals: 2
Number of bands in calculation: 2
Number of valence electrons: 2
Bands to converge: occupied

... initialized

Initializing position-dependent things.

Density initialized from atomic densities
Creating initial wave functions:
  2 bands from LCAO basis set

     .--------------.  
    /|              |  
   / |              |  
  /  |              |  
 *   |              |  
 |   |              |  
 |   |    H         |  
 |   |              |  
 |   |    H         |  
 |   |              |  
 |   .--------------.  
 |  /              /   
 | /              /    
 |/              /     
 *--------------*      

Positions:
   0 H      3.000000    3.000000    3.000000    ( 0.0000,  0.0000,  0.0000)
   1 H      3.000000    3.000000    5.000000    ( 0.0000,  0.0000,  0.0000)

Unit cell:
           periodic     x           y           z      points  spacing
  1. axis:    no     6.000000    0.000000    0.000000    30     0.2000
  2. axis:    no     0.000000    6.000000    0.000000    30     0.2000
  3. axis:    no     0.000000    0.000000    8.000000    40     0.2000

  Lengths:   6.000000   6.000000   8.000000
  Angles:   90.000000  90.000000  90.000000

Effective grid spacing dv^(1/3) = 0.2000

     iter     time        total  log10-change:
                         energy  eigst   dens
iter:   1 16:53:16    -2.380604
iter:   2 16:53:16    -2.378132  -2.30  -0.74
iter:   3 16:53:16    -2.350182  -2.48  -0.76
iter:   4 16:53:16    -2.347271  -2.94  -1.25
iter:   5 16:53:16    -2.347278  -4.92  -2.14
iter:   6 16:53:16    -2.347297c -4.41  -2.04
iter:   7 16:53:16    -2.347290c -6.41  -2.63
iter:   8 16:53:16    -2.347295c -5.60  -3.00
iter:   9 16:53:16    -2.347291c -5.89  -2.80
iter:  10 16:53:16    -2.347291c -7.37  -4.29c
iter:  11 16:53:16    -2.347291c -9.32c -4.19c

Converged after 11 iterations.

Dipole moment: (-0.000000, -0.000000, 0.000000) |e|*Ang

Energy contributions relative to reference atoms: (reference = -24.257917)

Kinetic:         -3.354819
Potential:       +1.149443
External:        +0.000000
XC:              -0.140588
Entropy (-ST):   +0.000000
Local:           -0.001326
--------------------------
Free energy:     -2.347291
Extrapolated:    -2.347291

 Band  Eigenvalues  Occupancy
    0     -7.28633    2.00000
    1     -4.73934    0.00000

Fermi level: -6.01283

Gap: 2.547 eV
Transition (v -> c):
  (s=0, k=0, n=0, [0.00, 0.00, 0.00]) -> (s=0, k=0, n=1, [0.00, 0.00, 0.00])
Input parameters:
  mode: {ecut: 550.0,
         name: pw}

Initialize ...

species:
  H:
    name: Hydrogen
    id: 4766778ce56282eaa64abeb28b7c1de3
    Z: 1.0
    valence: 1
    core: 0
    charge: 0.0
    file: /zhome/86/d/1666/PAW/gpaw-setups-0.9.20000/H.LDA.gz
    compensation charges: {type: gauss,
                           rc: 0.15,
                           lmax: 2}
    cutoffs: {filter: 0.85,
              core: 0.53}
    valence states:
      #              energy  rcut
      - 1s(1.00)    -6.353   0.476
      -  s          20.858   0.476
      -  p           0.000   0.476
  
    # Using partial waves for H as LCAO basis

Reference energy: -24.257917  # eV

Spin-paired calculation

Convergence criteria:
 Maximum [total energy] change in last 3 cyles: 0.0005 eV / valence electron
 Maximum integral of absolute [dens]ity change: 0.0001 electrons / valence electron
 Maximum integral of absolute [eigenst]ate change: 4e-08 eV^2 / valence electron
 Maximum number of scf [iter]ations: 333
 (Square brackets indicate name in SCF output, whereas a 'c' in
 the SCF output indicates the quantity has converged.)

Symmetries present (total): 16

  ( 1  0  0)  ( 1  0  0)  ( 1  0  0)  ( 1  0  0)  ( 0  1  0)  ( 0  1  0)
  ( 0  1  0)  ( 0  1  0)  ( 0 -1  0)  ( 0 -1  0)  ( 1  0  0)  ( 1  0  0)
  ( 0  0  1)  ( 0  0 -1)  ( 0  0  1)  ( 0  0 -1)  ( 0  0  1)  ( 0  0 -1)

  ( 0  1  0)  ( 0  1  0)  ( 0 -1  0)  ( 0 -1  0)  ( 0 -1  0)  ( 0 -1  0)
  (-1  0  0)  (-1  0  0)  ( 1  0  0)  ( 1  0  0)  (-1  0  0)  (-1  0  0)
  ( 0  0  1)  ( 0  0 -1)  ( 0  0  1)  ( 0  0 -1)  ( 0  0  1)  ( 0  0 -1)

  (-1  0  0)  (-1  0  0)  (-1  0  0)  (-1  0  0)
  ( 0  1  0)  ( 0  1  0)  ( 0 -1  0)  ( 0 -1  0)
  ( 0  0  1)  ( 0  0 -1)  ( 0  0  1)  ( 0  0 -1)

1 k-point (Gamma)
1 k-point in the irreducible part of the Brillouin zone
       k-points in crystal coordinates                weights
   0:     0.00000000    0.00000000    0.00000000          1/1

Wave functions: Plane wave expansion
  Cutoff energy: 550.000 eV
  Number of coefficients: 8491 (reduced to 4246)
  Pulay-stress correction: 0.000000 eV/Ang^3 (de/decut=0.000000)
  Using FFTW library
  ScaLapack parameters: grid=1x1, blocksize=None
  Wavefunction extrapolation:
    Improved wavefunction reuse through dual PAW basis 

Occupation numbers: # Zero width 

Eigensolver
   Davidson(niter=2) 

Densities:
  Coarse grid: 30*30*40 grid
  Fine grid: 60*60*80 grid
  Total Charge: 0.000000 

Density mixing:
  Method: separate
  Backend: pulay
  Linear mixing parameter: 0.05
  old densities: 5
  Damping of long wavelength oscillations: 50 

Hamiltonian:
  XC and Coulomb potentials evaluated on a 60*60*80 grid
  Using the LDA Exchange-Correlation functional
  External potential:
    NoExternalPotential
 

Memory estimate:
  Process memory now: 120.32 MiB
  Calculator: 2.63 MiB
    Density: 1.43 MiB
      Arrays: 0.60 MiB
      Localized functions: 0.59 MiB
      Mixer: 0.24 MiB
    Hamiltonian: 0.41 MiB
      Arrays: 0.39 MiB
      XC: 0.00 MiB
      Poisson: 0.00 MiB
      vbar: 0.01 MiB
    Wavefunctions: 0.80 MiB
      Arrays psit_nG: 0.01 MiB
      Eigensolver: 0.04 MiB
      Projections: 0.00 MiB
      Projectors: 0.02 MiB
      PW-descriptor: 0.73 MiB

Total number of cores used: 12
Domain decomposition: 2 x 2 x 3

Number of atoms: 2
Number of atomic orbitals: 2
Number of bands in calculation: 2
Number of valence electrons: 2
Bands to converge: occupied

... initialized

Initializing position-dependent things.

Density initialized from atomic densities
Creating initial wave functions:
  2 bands from LCAO basis set

     .--------------.  
    /|              |  
   / |              |  
  /  |              |  
 *   |              |  
 |   |              |  
 |   |    H         |  
 |   |              |  
 |   |    H         |  
 |   |              |  
 |   .--------------.  
 |  /              /   
 | /              /    
 |/              /     
 *--------------*      

Positions:
   0 H      3.000000    3.000000    3.000000    ( 0.0000,  0.0000,  0.0000)
   1 H      3.000000    3.000000    5.000000    ( 0.0000,  0.0000,  0.0000)

Unit cell:
           periodic     x           y           z      points  spacing
  1. axis:    no     6.000000    0.000000    0.000000    30     0.2000
  2. axis:    no     0.000000    6.000000    0.000000    30     0.2000
  3. axis:    no     0.000000    0.000000    8.000000    40     0.2000

  Lengths:   6.000000   6.000000   8.000000
  Angles:   90.000000  90.000000  90.000000

Effective grid spacing dv^(1/3) = 0.2000

     iter     time        total  log10-change:
                         energy  eigst   dens
iter:   1 16:53:17    -2.393087
iter:   2 16:53:17    -2.390648  -2.26  -0.74
iter:   3 16:53:17    -2.362926  -2.49  -0.76
iter:   4 16:53:17    -2.359835  -2.92  -1.24
iter:   5 16:53:17    -2.359855  -4.89  -2.14
iter:   6 16:53:17    -2.359860c -4.41  -2.02
iter:   7 16:53:17    -2.359854c -6.53  -2.67
iter:   8 16:53:17    -2.359859c -5.64  -3.01
iter:   9 16:53:17    -2.359855c -5.91  -2.82
iter:  10 16:53:17    -2.359855c -7.41c -4.30c

Converged after 10 iterations.

Dipole moment: (-0.000000, -0.000000, 0.000000) |e|*Ang

Energy contributions relative to reference atoms: (reference = -24.257917)

Kinetic:         -3.278571
Potential:       +1.067275
External:        +0.000000
XC:              -0.148136
Entropy (-ST):   +0.000000
Local:           -0.000423
--------------------------
Free energy:     -2.359855
Extrapolated:    -2.359855

 Band  Eigenvalues  Occupancy
    0     -7.28948    2.00000
    1     -4.74408    0.00000

Fermi level: -6.01678

Gap: 2.545 eV
Transition (v -> c):
  (s=0, k=0, n=0, [0.00, 0.00, 0.00]) -> (s=0, k=0, n=1, [0.00, 0.00, 0.00])
Input parameters:
  mode: {ecut: 650.0,
         name: pw}

Initialize ...

species:
  H:
    name: Hydrogen
    id: 4766778ce56282eaa64abeb28b7c1de3
    Z: 1.0
    valence: 1
    core: 0
    charge: 0.0
    file: /zhome/86/d/1666/PAW/gpaw-setups-0.9.20000/H.LDA.gz
    compensation charges: {type: gauss,
                           rc: 0.15,
                           lmax: 2}
    cutoffs: {filter: 0.85,
              core: 0.53}
    valence states:
      #              energy  rcut
      - 1s(1.00)    -6.353   0.476
      -  s          20.858   0.476
      -  p           0.000   0.476
  
    # Using partial waves for H as LCAO basis

Reference energy: -24.257917  # eV

Spin-paired calculation

Convergence criteria:
 Maximum [total energy] change in last 3 cyles: 0.0005 eV / valence electron
 Maximum integral of absolute [dens]ity change: 0.0001 electrons / valence electron
 Maximum integral of absolute [eigenst]ate change: 4e-08 eV^2 / valence electron
 Maximum number of scf [iter]ations: 333
 (Square brackets indicate name in SCF output, whereas a 'c' in
 the SCF output indicates the quantity has converged.)

Symmetries present (total): 16

  ( 1  0  0)  ( 1  0  0)  ( 1  0  0)  ( 1  0  0)  ( 0  1  0)  ( 0  1  0)
  ( 0  1  0)  ( 0  1  0)  ( 0 -1  0)  ( 0 -1  0)  ( 1  0  0)  ( 1  0  0)
  ( 0  0  1)  ( 0  0 -1)  ( 0  0  1)  ( 0  0 -1)  ( 0  0  1)  ( 0  0 -1)

  ( 0  1  0)  ( 0  1  0)  ( 0 -1  0)  ( 0 -1  0)  ( 0 -1  0)  ( 0 -1  0)
  (-1  0  0)  (-1  0  0)  ( 1  0  0)  ( 1  0  0)  (-1  0  0)  (-1  0  0)
  ( 0  0  1)  ( 0  0 -1)  ( 0  0  1)  ( 0  0 -1)  ( 0  0  1)  ( 0  0 -1)

  (-1  0  0)  (-1  0  0)  (-1  0  0)  (-1  0  0)
  ( 0  1  0)  ( 0  1  0)  ( 0 -1  0)  ( 0 -1  0)
  ( 0  0  1)  ( 0  0 -1)  ( 0  0  1)  ( 0  0 -1)

1 k-point (Gamma)
1 k-point in the irreducible part of the Brillouin zone
       k-points in crystal coordinates                weights
   0:     0.00000000    0.00000000    0.00000000          1/1

Wave functions: Plane wave expansion
  Cutoff energy: 650.000 eV
  Number of coefficients: 10881 (reduced to 5441)
  Pulay-stress correction: 0.000000 eV/Ang^3 (de/decut=0.000000)
  Using FFTW library
  ScaLapack parameters: grid=1x1, blocksize=None
  Wavefunction extrapolation:
    Improved wavefunction reuse through dual PAW basis 

Occupation numbers: # Zero width 

Eigensolver
   Davidson(niter=2) 

Densities:
  Coarse grid: 30*30*40 grid
  Fine grid: 60*60*80 grid
  Total Charge: 0.000000 

Density mixing:
  Method: separate
  Backend: pulay
  Linear mixing parameter: 0.05
  old densities: 5
  Damping of long wavelength oscillations: 50 

Hamiltonian:
  XC and Coulomb potentials evaluated on a 60*60*80 grid
  Using the LDA Exchange-Correlation functional
  External potential:
    NoExternalPotential
 

Memory estimate:
  Process memory now: 120.54 MiB
  Calculator: 2.66 MiB
    Density: 1.43 MiB
      Arrays: 0.60 MiB
      Localized functions: 0.59 MiB
      Mixer: 0.24 MiB
    Hamiltonian: 0.41 MiB
      Arrays: 0.39 MiB
      XC: 0.00 MiB
      Poisson: 0.00 MiB
      vbar: 0.01 MiB
    Wavefunctions: 0.82 MiB
      Arrays psit_nG: 0.01 MiB
      Eigensolver: 0.05 MiB
      Projections: 0.00 MiB
      Projectors: 0.02 MiB
      PW-descriptor: 0.73 MiB

Total number of cores used: 12
Domain decomposition: 2 x 2 x 3

Number of atoms: 2
Number of atomic orbitals: 2
Number of bands in calculation: 2
Number of valence electrons: 2
Bands to converge: occupied

... initialized

Initializing position-dependent things.

Density initialized from atomic densities
Creating initial wave functions:
  2 bands from LCAO basis set

     .--------------.  
    /|              |  
   / |              |  
  /  |              |  
 *   |              |  
 |   |              |  
 |   |    H         |  
 |   |              |  
 |   |    H         |  
 |   |              |  
 |   .--------------.  
 |  /              /   
 | /              /    
 |/              /     
 *--------------*      

Positions:
   0 H      3.000000    3.000000    3.000000    ( 0.0000,  0.0000,  0.0000)
   1 H      3.000000    3.000000    5.000000    ( 0.0000,  0.0000,  0.0000)

Unit cell:
           periodic     x           y           z      points  spacing
  1. axis:    no     6.000000    0.000000    0.000000    30     0.2000
  2. axis:    no     0.000000    6.000000    0.000000    30     0.2000
  3. axis:    no     0.000000    0.000000    8.000000    40     0.2000

  Lengths:   6.000000   6.000000   8.000000
  Angles:   90.000000  90.000000  90.000000

Effective grid spacing dv^(1/3) = 0.2000

     iter     time        total  log10-change:
                         energy  eigst   dens
iter:   1 16:53:17    -2.396910
iter:   2 16:53:18    -2.394480  -2.25  -0.74
iter:   3 16:53:18    -2.366826  -2.49  -0.76
iter:   4 16:53:18    -2.363710  -2.91  -1.24
iter:   5 16:53:18    -2.363730  -4.88  -2.14
iter:   6 16:53:18    -2.363735c -4.41  -2.02
iter:   7 16:53:18    -2.363729c -6.55  -2.68
iter:   8 16:53:18    -2.363734c -5.64  -3.01
iter:   9 16:53:18    -2.363730c -5.92  -2.82
iter:  10 16:53:18    -2.363730c -7.42c -4.31c

Converged after 10 iterations.

Dipole moment: (-0.000000, -0.000000, 0.000000) |e|*Ang

Energy contributions relative to reference atoms: (reference = -24.257917)

Kinetic:         -3.249099
Potential:       +1.035902
External:        +0.000000
XC:              -0.150655
Entropy (-ST):   +0.000000
Local:           +0.000121
--------------------------
Free energy:     -2.363730
Extrapolated:    -2.363730

 Band  Eigenvalues  Occupancy
    0     -7.29043    2.00000
    1     -4.74539    0.00000

Fermi level: -6.01791

Gap: 2.545 eV
Transition (v -> c):
  (s=0, k=0, n=0, [0.00, 0.00, 0.00]) -> (s=0, k=0, n=1, [0.00, 0.00, 0.00])
Timing:                              incl.     excl.
-----------------------------------------------------------
Hamiltonian:                         0.069     0.004   0.1% |
 Atomic:                             0.001     0.001   0.0% |
  XC Correction:                     0.000     0.000   0.0% |
 Calculate atomic Hamiltonians:      0.004     0.004   0.1% |
 Communicate:                        0.025     0.025   0.5% |
 Initialize Hamiltonian:             0.000     0.000   0.0% |
 Poisson:                            0.001     0.001   0.0% |
 XC 3D grid:                         0.033     0.033   0.7% |
LCAO initialization:                 0.060     0.019   0.4% |
 LCAO eigensolver:                   0.005     0.000   0.0% |
  Calculate projections:             0.000     0.000   0.0% |
  DenseAtomicCorrection:             0.000     0.000   0.0% |
  Distribute overlap matrix:         0.000     0.000   0.0% |
  Orbital Layouts:                   0.004     0.004   0.1% |
  Potential matrix:                  0.001     0.001   0.0% |
 LCAO to grid:                       0.007     0.007   0.1% |
 Set positions (LCAO WFS):           0.029     0.002   0.0% |
  Basic WFS set positions:           0.005     0.005   0.1% |
  Basis functions set positions:     0.000     0.000   0.0% |
  P tci:                             0.001     0.001   0.0% |
  ST tci:                            0.004     0.004   0.1% |
  mktci:                             0.017     0.017   0.4% |
PWDescriptor:                        0.324     0.324   6.8% |--|
SCF-cycle:                           2.706     0.019   0.4% |
 Davidson:                           0.392     0.054   1.1% |
  Apply H:                           0.063     0.062   1.3% ||
   HMM T:                            0.001     0.001   0.0% |
  Subspace diag:                     0.096     0.004   0.1% |
   calc_h_matrix:                    0.083     0.008   0.2% |
    Apply H:                         0.075     0.074   1.6% ||
     HMM T:                          0.001     0.001   0.0% |
   diagonalize:                      0.006     0.006   0.1% |
   rotate_psi:                       0.003     0.003   0.1% |
  calc. matrices:                    0.170     0.048   1.0% |
   Apply H:                          0.122     0.121   2.5% ||
    HMM T:                           0.002     0.002   0.0% |
  diagonalize:                       0.007     0.007   0.1% |
  rotate_psi:                        0.003     0.003   0.1% |
 Density:                            1.639     0.001   0.0% |
  Atomic density matrices:           0.029     0.029   0.6% |
  Mix:                               0.251     0.251   5.3% |-|
  Multipole moments:                 0.005     0.005   0.1% |
  Pseudo density:                    1.353     0.039   0.8% |
   Symmetrize density:               1.314     1.314  27.6% |----------|
 Hamiltonian:                        0.654     0.041   0.9% |
  Atomic:                            0.010     0.010   0.2% |
   XC Correction:                    0.000     0.000   0.0% |
  Calculate atomic Hamiltonians:     0.042     0.042   0.9% |
  Communicate:                       0.236     0.236   5.0% |-|
  Poisson:                           0.008     0.008   0.2% |
  XC 3D grid:                        0.317     0.317   6.7% |--|
 Orthonormalize:                     0.002     0.000   0.0% |
  calc_s_matrix:                     0.001     0.001   0.0% |
  inverse-cholesky:                  0.001     0.001   0.0% |
  projections:                       0.001     0.001   0.0% |
  rotate_psi_s:                      0.000     0.000   0.0% |
Set symmetry:                        0.019     0.019   0.4% |
Other:                               1.584     1.584  33.3% |------------|
-----------------------------------------------------------
Total:                                         4.762 100.0%

Memory usage: 121.19 MiB
Date: Wed Feb  8 16:53:18 2023
