
  ___ ___ ___ _ _ _  
 |   |   |_  | | | | 
 | | | | | . | | | | 
 |__ |  _|___|_____|  22.8.1b1
 |___|_|             

User:   s183553@n-62-28-30
Date:   Wed Feb  8 15:08:25 2023
Arch:   x86_64
Pid:    20335
CWD:    /zhome/06/4/136859/dft_course/CX1_CX2
Python: 3.8.5
gpaw:   /zhome/06/4/136859/dft_venv/gpaw/gpaw (3d6f5cf366)
_gpaw:  /zhome/06/4/136859/dft_venv/gpaw/
        _gpaw.cpython-38-x86_64-linux-gnu.so (3d6f5cf366)
ase:    /zhome/06/4/136859/dft_venv/ase/ase (version 3.23.0b1-d4570ca33a)
numpy:  /zhome/06/4/136859/dft_venv/lib/python3.8/site-packages/numpy (version 1.24.1)
scipy:  /zhome/06/4/136859/dft_venv/lib/python3.8/site-packages/scipy (version 1.10.0)
libxc:  4.3.4
units:  Angstrom and eV
cores: 1
OpenMP: False
OMP_NUM_THREADS: 1

Input parameters:
  h: 0.2

System changes: positions, numbers, cell, pbc, initial_charges, initial_magmoms 

Initialize ...

species:
  O:
    name: Oxygen
    id: 9b9d51c344dea68c822856295a461509
    Z: 8.0
    valence: 6
    core: 2
    charge: 0.0
    file: /zhome/86/d/1666/PAW/gpaw-setups-0.9.20000/O.LDA.gz
    compensation charges: {type: gauss,
                           rc: 0.21,
                           lmax: 2}
    cutoffs: {filter: 1.17,
              core: 0.83}
    valence states:
      #              energy  rcut
      - 2s(2.00)   -23.752   0.688
      - 2p(4.00)    -9.195   0.598
      -  s           3.459   0.688
      -  p          18.016   0.598
      -  d           0.000   0.619
  
    # Using partial waves for O as LCAO basis

  H:
    name: Hydrogen
    id: 4766778ce56282eaa64abeb28b7c1de3
    Z: 1.0
    valence: 1
    core: 0
    charge: 0.0
    file: /zhome/86/d/1666/PAW/gpaw-setups-0.9.20000/H.LDA.gz
    compensation charges: {type: gauss,
                           rc: 0.15,
                           lmax: 2}
    cutoffs: {filter: 0.85,
              core: 0.53}
    valence states:
      #              energy  rcut
      - 1s(1.00)    -6.353   0.476
      -  s          20.858   0.476
      -  p           0.000   0.476
  
    # Using partial waves for H as LCAO basis

Reference energy: -2052.165985  # eV

Spin-paired calculation

Convergence criteria:
 Maximum [total energy] change in last 3 cyles: 0.0005 eV / valence electron
 Maximum integral of absolute [dens]ity change: 0.0001 electrons / valence electron
 Maximum integral of absolute [eigenst]ate change: 4e-08 eV^2 / valence electron
 Maximum number of scf [iter]ations: 333
 (Square brackets indicate name in SCF output, whereas a 'c' in
 the SCF output indicates the quantity has converged.)

Symmetries present (total): 4

  ( 1  0  0)  ( 1  0  0)  (-1  0  0)  (-1  0  0)
  ( 0  1  0)  ( 0 -1  0)  ( 0  1  0)  ( 0 -1  0)
  ( 0  0  1)  ( 0  0  1)  ( 0  0  1)  ( 0  0  1)

1 k-point (Gamma)
1 k-point in the irreducible part of the Brillouin zone
       k-points in crystal coordinates                weights
   0:     0.00000000    0.00000000    0.00000000          1/1

Wave functions: Uniform real-space grid
  Kinetic energy operator: 6*3+1=19 point O(h^6) finite-difference Laplacian
  ScaLapack parameters: grid=1x1, blocksize=None
  Wavefunction extrapolation:
    Improved wavefunction reuse through dual PAW basis 

Occupation numbers: # Zero width 

Eigensolver
   Davidson(niter=2) 

Densities:
  Coarse grid: 40*40*40 grid
  Fine grid: 80*80*80 grid
  Total Charge: 0.000000 

Density mixing:
  Method: separate
  Backend: pulay
  Linear mixing parameter: 0.25
  old densities: 3
  Damping of long wavelength oscillations: 1  # (no daming) 

Hamiltonian:
  XC and Coulomb potentials evaluated on a 80*80*80 grid
  Using the LDA Exchange-Correlation functional
  Interpolation: tri-quintic (5. degree polynomial)
  Poisson solver: FastPoissonSolver using
    Stencil: 6*3+1=19 point O(h^6) finite-difference Laplacian
    FFT axes: []
    FST axes: [0, 1, 2]
 

Memory estimate:
  Process memory now: 128.57 MiB
  Calculator: 32.03 MiB
    Density: 16.16 MiB
      Arrays: 12.19 MiB
      Localized functions: 1.25 MiB
      Mixer: 2.72 MiB
    Hamiltonian: 8.07 MiB
      Arrays: 7.98 MiB
      XC: 0.00 MiB
      Poisson: 0.00 MiB
      vbar: 0.09 MiB
    Wavefunctions: 7.80 MiB
      Arrays psit_nG: 2.72 MiB
      Eigensolver: 4.98 MiB
      Projections: 0.00 MiB
      Projectors: 0.11 MiB

Total number of cores used: 1

Number of atoms: 3
Number of atomic orbitals: 6
Number of bands in calculation: 6
Number of valence electrons: 8
Bands to converge: occupied

... initialized

Initializing position-dependent things.

Density initialized from atomic densities
Creating initial wave functions:
  6 bands from LCAO basis set

      .-------------------.  
     /|                   |  
    / |                   |  
   /  |                   |  
  /   |                   |  
 *    |                   |  
 |    |                   |  
 |    |       O           |  
 |    |      H            |  
 |    |                   |  
 |    .-------------------.  
 |   /                   /   
 |  /                   /    
 | /                   /     
 |/                   /      
 *-------------------*       

Positions:
   0 O      4.000000    4.000000    4.298154    ( 0.0000,  0.0000,  0.0000)
   1 H      4.000000    4.763239    3.701846    ( 0.0000,  0.0000,  0.0000)
   2 H      4.000000    3.236761    3.701846    ( 0.0000,  0.0000,  0.0000)

Unit cell:
           periodic     x           y           z      points  spacing
  1. axis:    no     8.000000    0.000000    0.000000    40     0.2000
  2. axis:    no     0.000000    8.000000    0.000000    40     0.2000
  3. axis:    no     0.000000    0.000000    8.000000    40     0.2000

  Lengths:   8.000000   8.000000   8.000000
  Angles:   90.000000  90.000000  90.000000

Effective grid spacing dv^(1/3) = 0.2000

     iter     time        total  log10-change:
                         energy  eigst   dens
iter:   1 15:08:26   -17.375167
iter:   2 15:08:26   -15.536821  +0.75  -0.69
iter:   3 15:08:27   -15.317635  +0.50  -0.96
iter:   4 15:08:27   -15.272738  -0.70  -1.15
iter:   5 15:08:27   -15.253910  -1.15  -1.67
iter:   6 15:08:27   -15.253581  -1.51  -2.35
iter:   7 15:08:28   -15.253596c -2.77  -2.50
iter:   8 15:08:28   -15.253822c -2.82  -2.58
iter:   9 15:08:28   -15.253626c -2.98  -2.78
iter:  10 15:08:28   -15.253641c -3.83  -2.95
iter:  11 15:08:29   -15.253641c -4.75  -3.67
iter:  12 15:08:29   -15.253641c -5.16  -3.87
iter:  13 15:08:29   -15.253640c -5.69  -4.09c
iter:  14 15:08:30   -15.253641c -6.24  -4.20c
iter:  15 15:08:30   -15.253641c -7.08  -4.40c
iter:  16 15:08:30   -15.253641c -7.33  -4.62c
iter:  17 15:08:30   -15.253641c -7.44c -5.06c

Converged after 17 iterations.

Dipole moment: (-0.000000, -0.000000, -0.395058) |e|*Ang

Energy contributions relative to reference atoms: (reference = -2052.165985)

Kinetic:        +17.991123
Potential:      -20.252273
External:        +0.000000
XC:             -13.642814
Entropy (-ST):   +0.000000
Local:           +0.650324
--------------------------
Free energy:    -15.253641
Extrapolated:   -15.253641

 Band  Eigenvalues  Occupancy
    0    -25.07398    2.00000
    1    -13.13909    2.00000
    2     -9.41445    2.00000
    3     -7.38507    2.00000
    4     -0.60083    0.00000
    5      1.42131    0.00000

Fermi level: -3.99295

Gap: 6.784 eV
Transition (v -> c):
  (s=0, k=0, n=3, [0.00, 0.00, 0.00]) -> (s=0, k=0, n=4, [0.00, 0.00, 0.00])
Timing:                              incl.     excl.
-----------------------------------------------------------
Hamiltonian:                         0.157     0.000   0.0% |
 Atomic:                             0.021     0.001   0.0% |
  XC Correction:                     0.021     0.021   0.4% |
 Calculate atomic Hamiltonians:      0.001     0.001   0.0% |
 Communicate:                        0.000     0.000   0.0% |
 Hartree integrate/restrict:         0.007     0.007   0.1% |
 Initialize Hamiltonian:             0.001     0.001   0.0% |
 Poisson:                            0.051     0.004   0.1% |
  Communicate from 1D:               0.005     0.005   0.1% |
  Communicate from 2D:               0.004     0.004   0.1% |
  Communicate to 1D:                 0.008     0.008   0.2% |
  Communicate to 2D:                 0.005     0.005   0.1% |
  FFT 1D:                            0.008     0.008   0.1% |
  FFT 2D:                            0.018     0.018   0.3% |
 XC 3D grid:                         0.071     0.071   1.4% ||
 vbar:                               0.005     0.005   0.1% |
LCAO initialization:                 0.051     0.035   0.7% |
 LCAO eigensolver:                   0.006     0.000   0.0% |
  Calculate projections:             0.000     0.000   0.0% |
  DenseAtomicCorrection:             0.000     0.000   0.0% |
  Distribute overlap matrix:         0.000     0.000   0.0% |
  Orbital Layouts:                   0.003     0.003   0.1% |
  Potential matrix:                  0.003     0.003   0.1% |
 LCAO to grid:                       0.004     0.004   0.1% |
 Set positions (LCAO WFS):           0.006     0.001   0.0% |
  Basic WFS set positions:           0.001     0.001   0.0% |
  Basis functions set positions:     0.000     0.000   0.0% |
  P tci:                             0.003     0.003   0.1% |
  ST tci:                            0.001     0.001   0.0% |
  mktci:                             0.001     0.001   0.0% |
SCF-cycle:                           4.422     0.010   0.2% |
 Davidson:                           1.641     0.554  10.5% |---|
  Apply hamiltonian:                 0.178     0.178   3.4% ||
  Subspace diag:                     0.259     0.001   0.0% |
   calc_h_matrix:                    0.224     0.044   0.8% |
    Apply hamiltonian:               0.180     0.180   3.4% ||
   diagonalize:                      0.003     0.003   0.1% |
   rotate_psi:                       0.031     0.031   0.6% |
  calc. matrices:                    0.596     0.243   4.6% |-|
   Apply hamiltonian:                0.353     0.353   6.7% |--|
  diagonalize:                       0.004     0.004   0.1% |
  rotate_psi:                        0.049     0.049   0.9% |
 Density:                            0.453     0.000   0.0% |
  Atomic density matrices:           0.009     0.009   0.2% |
  Mix:                               0.206     0.206   3.9% |-|
  Multipole moments:                 0.002     0.002   0.0% |
  Pseudo density:                    0.235     0.010   0.2% |
   Symmetrize density:               0.225     0.225   4.3% |-|
 Hamiltonian:                        2.315     0.001   0.0% |
  Atomic:                            0.342     0.011   0.2% |
   XC Correction:                    0.331     0.331   6.3% |--|
  Calculate atomic Hamiltonians:     0.011     0.011   0.2% |
  Communicate:                       0.000     0.000   0.0% |
  Hartree integrate/restrict:        0.127     0.127   2.4% ||
  Poisson:                           0.703     0.032   0.6% |
   Communicate from 1D:              0.063     0.063   1.2% |
   Communicate from 2D:              0.058     0.058   1.1% |
   Communicate to 1D:                0.062     0.062   1.2% |
   Communicate to 2D:                0.061     0.061   1.2% |
   FFT 1D:                           0.126     0.126   2.4% ||
   FFT 2D:                           0.302     0.302   5.7% |-|
  XC 3D grid:                        1.102     1.102  21.0% |-------|
  vbar:                              0.029     0.029   0.6% |
 Orthonormalize:                     0.003     0.000   0.0% |
  calc_s_matrix:                     0.002     0.002   0.0% |
  inverse-cholesky:                  0.000     0.000   0.0% |
  projections:                       0.000     0.000   0.0% |
  rotate_psi_s:                      0.001     0.001   0.0% |
Set symmetry:                        0.003     0.003   0.0% |
Other:                               0.627     0.627  11.9% |----|
-----------------------------------------------------------
Total:                                         5.259 100.0%

Memory usage: 151.86 MiB
Date: Wed Feb  8 15:08:30 2023
