
  ___ ___ ___ _ _ _  
 |   |   |_  | | | | 
 | | | | | . | | | | 
 |__ |  _|___|_____|  22.8.1b1
 |___|_|             

User:   s183553@n-62-28-28
Date:   Wed Feb  8 14:34:01 2023
Arch:   x86_64
Pid:    669
CWD:    /zhome/06/4/136859/dft_course/CX1_CX2
Python: 3.8.5
gpaw:   /zhome/06/4/136859/dft_venv/gpaw/gpaw (3d6f5cf366)
_gpaw:  /zhome/06/4/136859/dft_venv/gpaw/
        _gpaw.cpython-38-x86_64-linux-gnu.so (3d6f5cf366)
ase:    /zhome/06/4/136859/dft_venv/ase/ase (version 3.23.0b1-d4570ca33a)
numpy:  /zhome/06/4/136859/dft_venv/lib/python3.8/site-packages/numpy (version 1.24.1)
scipy:  /zhome/06/4/136859/dft_venv/lib/python3.8/site-packages/scipy (version 1.10.0)
libxc:  4.3.4
units:  Angstrom and eV
cores: 1
OpenMP: False
OMP_NUM_THREADS: 1

Input parameters:
  eigensolver: rmm-diis
  hund: True
  mode: {ecut: 340.0,
         name: pw}
  occupations: {fixmagmom: True,
                name: fermi-dirac,
                width: 0.0}
  xc: PBE

System changes: positions, numbers, cell, pbc, initial_charges, initial_magmoms 

Initialize ...

species:
  H:
    name: Hydrogen
    id: d65de229564ff8ea4db303e23b6d1ecf
    Z: 1.0
    valence: 1
    core: 0
    charge: 0.0
    file: /zhome/86/d/1666/PAW/gpaw-setups-0.9.20000/H.PBE.gz
    compensation charges: {type: gauss,
                           rc: 0.15,
                           lmax: 2}
    cutoffs: {filter: 0.85,
              core: 0.53}
    valence states:
      #              energy  rcut
      - 1s(1.00)    -6.494   0.476
      -  s          20.717   0.476
      -  p           0.000   0.476
  
    # Using partial waves for H as LCAO basis

Reference energy: -12.490162  # eV

Spin-polarized calculation.
Magnetic moment: 1.000000

Convergence criteria:
 Maximum [total energy] change in last 3 cyles: 0.0005 eV / valence electron
 Maximum integral of absolute [dens]ity change: 0.0001 electrons / valence electron
 Maximum integral of absolute [eigenst]ate change: 4e-08 eV^2 / valence electron
 Maximum number of scf [iter]ations: 333
 (Square brackets indicate name in SCF output, whereas a 'c' in
 the SCF output indicates the quantity has converged.)

Symmetries present (total): 2

  ( 1  0  0)  (-1  0  0)
  ( 0  1  0)  ( 0  1  0)
  ( 0  0  1)  ( 0  0  1)

1 k-point (Gamma)
1 k-point in the irreducible part of the Brillouin zone
       k-points in crystal coordinates                weights
   0:     0.00000000    0.00000000    0.00000000          1/1

Wave functions: Plane wave expansion
  Cutoff energy: 340.000 eV
  Number of coefficients: 14243 (reduced to 7122)
  Pulay-stress correction: 0.000000 eV/Ang^3 (de/decut=0.000000)
  Using FFTW library
  ScaLapack parameters: grid=1x1, blocksize=None
  Wavefunction extrapolation:
    Improved wavefunction reuse through dual PAW basis 

Occupation numbers: Fixed magnetic moment: 1.000
# Zero width 

Eigensolver
   RMM-DIIS eigensolver
       keep_htpsit: True
       DIIS iterations: 3
       Threshold for DIIS: 1.0e-16
       Limit lambda: False
       use_rayleigh: False
       trial_step: 0.1 

Densities:
  Coarse grid: 45*45*45 grid
  Fine grid: 90*90*90 grid
  Total Charge: 0.000000 

Density mixing:
  Method: difference
  Backend: pulay
  Linear mixing parameter: 0.05
  old densities: 5
  Damping of long wavelength oscillations: 50 

Hamiltonian:
  XC and Coulomb potentials evaluated on a 90*90*90 grid
  Using the PBE Exchange-Correlation functional
  External potential:
    NoExternalPotential
 

XC parameters: PBE with 2 nearest neighbor stencil

Memory estimate:
  Process memory now: 128.23 MiB
  Calculator: 70.61 MiB
    Density: 49.11 MiB
      Arrays: 24.33 MiB
      Localized functions: 15.04 MiB
      Mixer: 9.73 MiB
    Hamiltonian: 18.38 MiB
      Arrays: 18.08 MiB
      XC: 0.00 MiB
      Poisson: 0.00 MiB
      vbar: 0.31 MiB
    Wavefunctions: 3.12 MiB
      Arrays psit_nG: 0.22 MiB
      Eigensolver: 0.65 MiB
      Projections: 0.00 MiB
      Projectors: 0.38 MiB
      PW-descriptor: 1.87 MiB

Total number of cores used: 1

Number of atoms: 1
Number of atomic orbitals: 1
Number of bands in calculation: 1
Number of valence electrons: 1
Bands to converge: occupied

... initialized

Initializing position-dependent things.

Density initialized from atomic densities
Creating initial wave functions:
  1 band from LCAO basis set

       .------------------------.  
      /|                        |  
     / |                        |  
    /  |                        |  
   /   |                        |  
  /    |                        |  
 *     |                        |  
 |     |                        |  
 |     |                        |  
 |     |        H               |  
 |     |                        |  
 |     |                        |  
 |     .------------------------.  
 |    /                        /   
 |   /                        /    
 |  /                        /     
 | /                        /      
 |/                        /       
 *------------------------*        

Positions:
   0 H      5.000000    5.000000    5.000000    ( 0.0000,  0.0000,  1.0000)

Unit cell:
           periodic     x           y           z      points  spacing
  1. axis:    no    10.000000    0.000000    0.000000    45     0.2222
  2. axis:    no     0.000000   10.000100    0.000000    45     0.2222
  3. axis:    no     0.000000    0.000000   10.000200    45     0.2222

  Lengths:  10.000000  10.000100  10.000200
  Angles:   90.000000  90.000000  90.000000

Effective grid spacing dv^(1/3) = 0.2222

     iter     time        total  log10-change:  magmom
                         energy  eigst   dens
iter:   1 14:34:04    -1.041607                  +1.0000
iter:   2 14:34:05     3.303039  -1.73  -1.13    +1.0000
iter:   3 14:34:05    12.669632  -1.18  -1.13    +1.0000
iter:   4 14:34:06     7.523981  -1.08  -0.75    +1.0000
iter:   5 14:34:07     0.838532  -1.84  -2.01    +1.0000
iter:   6 14:34:08    -1.006358  -1.91  -1.94    +1.0000
iter:   7 14:34:09    -1.029158  -2.31  -1.52    +1.0000
iter:   8 14:34:10    -1.030734  -3.91  -2.50    +1.0000
iter:   9 14:34:11    -1.042592  -4.14  -2.08    +1.0000
iter:  10 14:34:12    -0.920924  -2.85  -2.16    +1.0000
iter:  11 14:34:13    -1.064256  -3.47  -2.40    +1.0000
iter:  12 14:34:14    -0.715084  -3.38  -2.56    +1.0000
iter:  13 14:34:15    -1.073842  -3.76  -2.48    +1.0000
iter:  14 14:34:15    -1.063166  -4.55  -2.76    +1.0000
iter:  15 14:34:16    -1.072333  -4.57  -2.45    +1.0000
iter:  16 14:34:17    -1.074175  -5.73  -2.95    +1.0000
iter:  17 14:34:18    -1.076193  -5.45  -3.25    +1.0000
iter:  18 14:34:19    -1.076448  -7.04  -4.08c   +1.0000
iter:  19 14:34:20    -1.076784  -6.74  -4.45c   +1.0000
iter:  20 14:34:21    -1.061860  -6.31  -4.22c   +1.0000
iter:  21 14:34:22    -1.076925  -6.42  -4.25c   +1.0000
iter:  22 14:34:23    -1.076751  -7.46c -4.19c   +1.0000
iter:  23 14:34:24    -1.076812c -8.01c -4.22c   +1.0000

Converged after 23 iterations.

Dipole moment: (0.000000, 0.000001, 0.000002) |e|*Ang

Total magnetic moment: (0.000000, 0.000000, 1.000000)
Local magnetic moments:
   0 H  ( 0.000000,  0.000000,  0.262490)

Energy contributions relative to reference atoms: (reference = -12.490162)

Kinetic:         +1.084339
Potential:       -0.669038
External:        +0.000000
XC:              -1.488823
Entropy (-ST):   +0.000000
Local:           -0.003290
--------------------------
Free energy:     -1.076812
Extrapolated:    -1.076812

Spin contamination: 0.000004 electrons
                   Up                     Down
 Band  Eigenvalues  Occupancy  Eigenvalues  Occupancy
    0     -7.55005    1.00000      0.06523    0.00000

Fermi levels: inf, 0.06523

Writing to H.gpw (mode='')

