
  ___ ___ ___ _ _ _  
 |   |   |_  | | | | 
 | | | | | . | | | | 
 |__ |  _|___|_____|  22.8.1b1
 |___|_|             

User:   s183553@n-62-28-28
Date:   Wed Feb  8 14:34:24 2023
Arch:   x86_64
Pid:    669
CWD:    /zhome/06/4/136859/dft_course/CX1_CX2
Python: 3.8.5
gpaw:   /zhome/06/4/136859/dft_venv/gpaw/gpaw (3d6f5cf366)
_gpaw:  /zhome/06/4/136859/dft_venv/gpaw/
        _gpaw.cpython-38-x86_64-linux-gnu.so (3d6f5cf366)
ase:    /zhome/06/4/136859/dft_venv/ase/ase (version 3.23.0b1-d4570ca33a)
numpy:  /zhome/06/4/136859/dft_venv/lib/python3.8/site-packages/numpy (version 1.24.1)
scipy:  /zhome/06/4/136859/dft_venv/lib/python3.8/site-packages/scipy (version 1.10.0)
libxc:  4.3.4
units:  Angstrom and eV
cores: 1
OpenMP: False
OMP_NUM_THREADS: 1

Input parameters:
  hund: False

System changes: cell, initial_magmoms, numbers, positions 

Initialize ...

species:
  H:
    name: Hydrogen
    id: d65de229564ff8ea4db303e23b6d1ecf
    Z: 1.0
    valence: 1
    core: 0
    charge: 0.0
    file: /zhome/86/d/1666/PAW/gpaw-setups-0.9.20000/H.PBE.gz
    compensation charges: {type: gauss,
                           rc: 0.15,
                           lmax: 2}
    cutoffs: {filter: 0.85,
              core: 0.53}
    valence states:
      #              energy  rcut
      - 1s(1.00)    -6.494   0.476
      -  s          20.717   0.476
      -  p           0.000   0.476
  
    # Using partial waves for H as LCAO basis

Reference energy: -24.980324  # eV

Spin-paired calculation

Convergence criteria:
 Maximum [total energy] change in last 3 cyles: 0.0005 eV / valence electron
 Maximum integral of absolute [dens]ity change: 0.0001 electrons / valence electron
 Maximum integral of absolute [eigenst]ate change: 4e-08 eV^2 / valence electron
 Maximum number of scf [iter]ations: 333
 (Square brackets indicate name in SCF output, whereas a 'c' in
 the SCF output indicates the quantity has converged.)

Symmetries present (total): 16

  ( 1  0  0)  ( 1  0  0)  ( 1  0  0)  ( 1  0  0)  ( 1  0  0)  ( 1  0  0)
  ( 0  1  0)  ( 0  1  0)  ( 0  0  1)  ( 0  0  1)  ( 0  0 -1)  ( 0  0 -1)
  ( 0  0  1)  ( 0  0 -1)  ( 0  1  0)  ( 0 -1  0)  ( 0  1  0)  ( 0 -1  0)

  ( 1  0  0)  ( 1  0  0)  (-1  0  0)  (-1  0  0)  (-1  0  0)  (-1  0  0)
  ( 0 -1  0)  ( 0 -1  0)  ( 0  1  0)  ( 0  1  0)  ( 0  0  1)  ( 0  0  1)
  ( 0  0  1)  ( 0  0 -1)  ( 0  0  1)  ( 0  0 -1)  ( 0  1  0)  ( 0 -1  0)

  (-1  0  0)  (-1  0  0)  (-1  0  0)  (-1  0  0)
  ( 0  0 -1)  ( 0  0 -1)  ( 0 -1  0)  ( 0 -1  0)
  ( 0  1  0)  ( 0 -1  0)  ( 0  0  1)  ( 0  0 -1)

1 k-point (Gamma)
1 k-point in the irreducible part of the Brillouin zone
       k-points in crystal coordinates                weights
   0:     0.00000000    0.00000000    0.00000000          1/1

Wave functions: Plane wave expansion
  Cutoff energy: 340.000 eV
  Number of coefficients: 14243 (reduced to 7122)
  Pulay-stress correction: 0.000000 eV/Ang^3 (de/decut=0.000000)
  Using FFTW library
  ScaLapack parameters: grid=1x1, blocksize=None
  Wavefunction extrapolation:
    Improved wavefunction reuse through dual PAW basis 

Occupation numbers: # Zero width 

Eigensolver
   RMM-DIIS eigensolver
       keep_htpsit: True
       DIIS iterations: 3
       Threshold for DIIS: 1.0e-16
       Limit lambda: False
       use_rayleigh: False
       trial_step: 0.1 

Densities:
  Coarse grid: 45*45*45 grid
  Fine grid: 90*90*90 grid
  Total Charge: 0.000000 

Density mixing:
  Method: separate
  Backend: pulay
  Linear mixing parameter: 0.05
  old densities: 5
  Damping of long wavelength oscillations: 50 

Hamiltonian:
  XC and Coulomb potentials evaluated on a 90*90*90 grid
  Using the PBE Exchange-Correlation functional
  External potential:
    NoExternalPotential
 

XC parameters: PBE with 2 nearest neighbor stencil

Memory estimate:
  Process memory now: 269.35 MiB
  Calculator: 55.43 MiB
    Density: 40.07 MiB
      Arrays: 18.08 MiB
      Localized functions: 15.04 MiB
      Mixer: 6.95 MiB
    Hamiltonian: 12.13 MiB
      Arrays: 11.82 MiB
      XC: 0.00 MiB
      Poisson: 0.00 MiB
      vbar: 0.31 MiB
    Wavefunctions: 3.23 MiB
      Arrays psit_nG: 0.22 MiB
      Eigensolver: 0.76 MiB
      Projections: 0.00 MiB
      Projectors: 0.38 MiB
      PW-descriptor: 1.87 MiB

Total number of cores used: 1

Number of atoms: 2
Number of atomic orbitals: 2
Number of bands in calculation: 2
Number of valence electrons: 2
Bands to converge: occupied

... initialized

Initializing position-dependent things.

Density initialized from atomic densities
Creating initial wave functions:
  2 bands from LCAO basis set

       .------------------------.  
      /|                        |  
     / |                        |  
    /  |                        |  
   /   |                        |  
  /    |                        |  
 *     |                        |  
 |     |                        |  
 |     |                        |  
 |     |        HH              |  
 |     |                        |  
 |     |                        |  
 |     .------------------------.  
 |    /                        /   
 |   /                        /    
 |  /                        /     
 | /                        /      
 |/                        /       
 *------------------------*        

Positions:
   0 H      4.630000    5.000000    5.000000    ( 0.0000,  0.0000,  0.0000)
   1 H      5.370000    5.000000    5.000000    ( 0.0000,  0.0000,  0.0000)

Unit cell:
           periodic     x           y           z      points  spacing
  1. axis:    no    10.000000    0.000000    0.000000    45     0.2222
  2. axis:    no     0.000000   10.000000    0.000000    45     0.2222
  3. axis:    no     0.000000    0.000000   10.000000    45     0.2222

  Lengths:  10.000000  10.000000  10.000000
  Angles:   90.000000  90.000000  90.000000

Effective grid spacing dv^(1/3) = 0.2222

     iter     time        total  log10-change:
                         energy  eigst   dens
iter:   1 14:34:24    -4.780246
iter:   2 14:34:25    -7.167567  +0.02  -0.39
iter:   3 14:34:25    -6.605918  -0.02  -0.43
iter:   4 14:34:26    -6.640607  -0.97  -1.07
iter:   5 14:34:26    -6.648954  -3.01  -1.88
iter:   6 14:34:27    -6.649287  -2.66  -1.85
iter:   7 14:34:27    -6.649198c -3.19  -2.15
iter:   8 14:34:28    -6.649256c -5.34  -3.51
iter:   9 14:34:28    -6.649255c -5.10  -3.26
iter:  10 14:34:29    -6.649255c -6.10  -3.63
iter:  11 14:34:29    -6.649255c -8.51c -5.03c

Converged after 11 iterations.

Dipole moment: (-0.000000, 0.000000, 0.000000) |e|*Ang

Energy contributions relative to reference atoms: (reference = -24.980324)

Kinetic:         +6.253001
Potential:       -7.838184
External:        +0.000000
XC:              -5.057999
Entropy (-ST):   +0.000000
Local:           -0.006073
--------------------------
Free energy:     -6.649255
Extrapolated:    -6.649255

 Band  Eigenvalues  Occupancy
    0    -10.33354    2.00000
    1      0.40900    0.00000

Fermi level: -4.96227

Gap: 10.743 eV
Transition (v -> c):
  (s=0, k=0, n=0, [0.00, 0.00, 0.00]) -> (s=0, k=0, n=1, [0.00, 0.00, 0.00])
Writing to H2.gpw (mode='')

Timing:                              incl.     excl.
-----------------------------------------------------------
Hamiltonian:                         1.090     0.007   0.0% |
 Atomic:                             0.066     0.001   0.0% |
  XC Correction:                     0.065     0.065   0.2% |
 Calculate atomic Hamiltonians:      0.025     0.025   0.1% |
 Communicate:                        0.000     0.000   0.0% |
 Initialize Hamiltonian:             0.001     0.001   0.0% |
 Poisson:                            0.008     0.008   0.0% |
 XC 3D grid:                         0.983     0.983   3.5% ||
LCAO initialization:                 0.066     0.010   0.0% |
 LCAO eigensolver:                   0.041     0.001   0.0% |
  Calculate projections:             0.000     0.000   0.0% |
  DenseAtomicCorrection:             0.000     0.000   0.0% |
  Distribute overlap matrix:         0.000     0.000   0.0% |
  Orbital Layouts:                   0.039     0.039   0.1% |
  Potential matrix:                  0.001     0.001   0.0% |
 LCAO to grid:                       0.006     0.006   0.0% |
 Set positions (LCAO WFS):           0.009     0.001   0.0% |
  Basic WFS set positions:           0.001     0.001   0.0% |
  Basis functions set positions:     0.000     0.000   0.0% |
  P tci:                             0.002     0.002   0.0% |
  ST tci:                            0.001     0.001   0.0% |
  mktci:                             0.003     0.003   0.0% |
PWDescriptor:                        0.188     0.188   0.7% |
SCF-cycle:                          24.721     0.030   0.1% |
 Density:                            2.736     0.001   0.0% |
  Atomic density matrices:           0.018     0.018   0.1% |
  Mix:                               1.278     1.278   4.6% |-|
  Multipole moments:                 0.003     0.003   0.0% |
  Pseudo density:                    1.435     0.087   0.3% |
   Symmetrize density:               1.348     1.348   4.8% |-|
 Hamiltonian:                       21.200     0.093   0.3% |
  Atomic:                            1.068     0.018   0.1% |
   XC Correction:                    1.049     1.049   3.7% ||
  Calculate atomic Hamiltonians:     0.327     0.327   1.2% |
  Communicate:                       0.000     0.000   0.0% |
  Poisson:                           0.100     0.100   0.4% |
  XC 3D grid:                       19.613    19.613  69.9% |---------------------------|
 Orthonormalize:                     0.050     0.005   0.0% |
  calc_s_matrix:                     0.012     0.012   0.0% |
  inverse-cholesky:                  0.005     0.005   0.0% |
  projections:                       0.024     0.024   0.1% |
  rotate_psi_s:                      0.004     0.004   0.0% |
 RMM-DIIS:                           0.518     0.022   0.1% |
  Apply H:                           0.144     0.142   0.5% |
   HMM T:                            0.002     0.002   0.0% |
  Calculate residuals:               0.059     0.059   0.2% |
  DIIS step:                         0.235     0.008   0.0% |
   Calculate residuals:              0.196     0.052   0.2% |
    Apply H:                         0.144     0.142   0.5% |
     HMM T:                          0.002     0.002   0.0% |
   Construct matrix:                 0.017     0.017   0.1% |
   Linear solve:                     0.003     0.003   0.0% |
   Update trial vectors:             0.009     0.009   0.0% |
   precondition:                     0.002     0.002   0.0% |
  Find lambda:                       0.013     0.013   0.0% |
  Update psi:                        0.005     0.005   0.0% |
  precondition:                      0.014     0.014   0.0% |
  projections:                       0.025     0.025   0.1% |
 Subspace diag:                      0.187     0.005   0.0% |
  calc_h_matrix:                     0.168     0.017   0.1% |
   Apply H:                          0.151     0.147   0.5% |
    HMM T:                           0.004     0.004   0.0% |
  diagonalize:                       0.007     0.007   0.0% |
  rotate_psi:                        0.007     0.007   0.0% |
Set symmetry:                        0.007     0.007   0.0% |
Other:                               1.989     1.989   7.1% |--|
-----------------------------------------------------------
Total:                                        28.061 100.0%

Memory usage: 269.35 MiB
Date: Wed Feb  8 14:34:29 2023
