
  ___ ___ ___ _ _ _  
 |   |   |_  | | | | 
 | | | | | . | | | | 
 |__ |  _|___|_____|  22.8.1b1
 |___|_|             

User:   s183553@n-62-28-34
Date:   Wed Mar  1 15:25:55 2023
Arch:   x86_64
Pid:    13942
CWD:    /zhome/06/4/136859/dft_course/CX4
Python: 3.8.5
gpaw:   /zhome/06/4/136859/dft_venv/gpaw/gpaw (3d6f5cf366)
_gpaw:  /zhome/06/4/136859/dft_venv/gpaw/
        _gpaw.cpython-38-x86_64-linux-gnu.so (3d6f5cf366)
ase:    /zhome/06/4/136859/dft_venv/ase/ase (version 3.23.0b1-d4570ca33a)
numpy:  /zhome/06/4/136859/dft_venv/lib/python3.8/site-packages/numpy (version 1.24.1)
scipy:  /zhome/06/4/136859/dft_venv/lib/python3.8/site-packages/scipy (version 1.10.0)
libxc:  4.3.4
units:  Angstrom and eV
cores: 16
OpenMP: False
OMP_NUM_THREADS: 1

Input parameters:
  basis: dzp
  h: 0.2
  mode: lcao

System changes: positions, numbers, cell, pbc, initial_charges, initial_magmoms 

Initialize ...

species:
  H:
    name: Hydrogen
    id: 4766778ce56282eaa64abeb28b7c1de3
    Z: 1.0
    valence: 1
    core: 0
    charge: 0.0
    file: /zhome/86/d/1666/PAW/gpaw-setups-0.9.20000/H.LDA.gz
    compensation charges: {type: gauss,
                           rc: 0.15,
                           lmax: 2}
    cutoffs: {filter: 0.85,
              core: 0.53}
    valence states:
      #              energy  rcut
      - 1s(1.00)    -6.353   0.476
      -  s          20.858   0.476
      -  p           0.000   0.476
  
    # LCAO basis set for H:
    #   Name: dzp
    #   File: /zhome/86/d/1666/PAW/gpaw-setups-0.9.20000/H.dzp.basis.gz
    #   Number of radial functions: 3
    #   Number of spherical harmonics: 5
    #     l=0, rc=6.4219 Bohr: 1s-sz confined orbital
    #     l=0, rc=3.6094 Bohr: 1s-dz split-valence wave
    #     l=1, rc=6.4219 Bohr: p-type Gaussian polarization
    #   Number of RI-basis functions 0

  O:
    name: Oxygen
    id: 9b9d51c344dea68c822856295a461509
    Z: 8.0
    valence: 6
    core: 2
    charge: 0.0
    file: /zhome/86/d/1666/PAW/gpaw-setups-0.9.20000/O.LDA.gz
    compensation charges: {type: gauss,
                           rc: 0.21,
                           lmax: 2}
    cutoffs: {filter: 1.17,
              core: 0.83}
    valence states:
      #              energy  rcut
      - 2s(2.00)   -23.752   0.688
      - 2p(4.00)    -9.195   0.598
      -  s           3.459   0.688
      -  p          18.016   0.598
      -  d           0.000   0.619
  
    # LCAO basis set for O:
    #   Name: dzp
    #   File: /zhome/86/d/1666/PAW/gpaw-setups-0.9.20000/O.dzp.basis.gz
    #   Number of radial functions: 5
    #   Number of spherical harmonics: 13
    #     l=0, rc=4.3438 Bohr: 2s-sz confined orbital
    #     l=1, rc=5.3906 Bohr: 2p-sz confined orbital
    #     l=0, rc=2.2969 Bohr: 2s-dz split-valence wave
    #     l=1, rc=2.8906 Bohr: 2p-dz split-valence wave
    #     l=2, rc=5.3906 Bohr: d-type Gaussian polarization
    #   Number of RI-basis functions 0

Reference energy: -2052.165985  # eV

Spin-paired calculation

Convergence criteria:
 Maximum [total energy] change in last 3 cyles: 0.0005 eV / valence electron
 Maximum integral of absolute [dens]ity change: 0.0001 electrons / valence electron
 Maximum integral of absolute [eigenst]ate change: 4e-08 eV^2 / valence electron
 Maximum number of scf [iter]ations: 333
 (Square brackets indicate name in SCF output, whereas a 'c' in
 the SCF output indicates the quantity has converged.)

Symmetries present (total): 2

  ( 1  0  0)  ( 1  0  0)
  ( 0  1  0)  ( 0  1  0)
  ( 0  0  1)  ( 0  0 -1)

1 k-point (Gamma)
1 k-point in the irreducible part of the Brillouin zone
       k-points in crystal coordinates                weights
   0:     0.00000000    0.00000000    0.00000000          1/1

Wave functions: LCAO
  Diagonalizer: Serial LAPACK
  Atomic Correction: dense with blas
  Data-type: float
 

Occupation numbers: # Zero width 

Eigensolver
   LCAO using direct dense diagonalizer 

Densities:
  Coarse grid: 40*40*36 grid
  Fine grid: 80*80*72 grid
  Total Charge: 0.000000 

Density mixing:
  Method: separate
  Backend: pulay
  Linear mixing parameter: 0.25
  old densities: 3
  Damping of long wavelength oscillations: 1  # (no daming) 

Hamiltonian:
  XC and Coulomb potentials evaluated on a 80*80*72 grid
  Using the LDA Exchange-Correlation functional
  Interpolation: tri-quintic (5. degree polynomial)
  Poisson solver: FastPoissonSolver using
    Stencil: 6*3+1=19 point O(h^6) finite-difference Laplacian
    FFT axes: []
    FST axes: [2, 0, 1]
 

Memory estimate:
  Process memory now: 85.06 MiB
  Calculator: 1.42 MiB
    Density: 0.85 MiB
      Arrays: 0.64 MiB
      Localized functions: 0.08 MiB
      Mixer: 0.13 MiB
    Hamiltonian: 0.42 MiB
      Arrays: 0.42 MiB
      XC: 0.00 MiB
      Poisson: 0.00 MiB
      vbar: 0.01 MiB
    Wavefunctions: 0.15 MiB
      C [qnM]: 0.00 MiB
      S, T [2 x qmm]: 0.01 MiB
      P [aqMi]: 0.00 MiB
      BasisFunctions: 0.14 MiB
      Eigensolver: 0.00 MiB

Total number of cores used: 16
Domain decomposition: 2 x 4 x 2

Number of atoms: 3
Number of atomic orbitals: 23
Number of bands in calculation: 6
Number of valence electrons: 8
Bands to converge: occupied

... initialized

Initializing position-dependent things.

Density initialized from atomic densities
      .-------------------.  
     /|                   |  
    / |                   |  
   /  |                   |  
  /   |                   |  
 *    |                   |  
 |    |                   |  
 |    |     H  H          |  
 |    |                   |  
 |    .-------------------.  
 |   /                   /   
 |  /                   /    
 | /                   /     
 |/                   /      
 *-------------------*       

Positions:
   0 H      3.739901    3.500000    3.500000    ( 0.0000,  0.0000,  0.0000)
   1 H      4.697401    3.500000    3.500000    ( 0.0000,  0.0000,  0.0000)
   2 O      3.500000    4.426960    3.500000    ( 0.0000,  0.0000,  0.0000)

Unit cell:
           periodic     x           y           z      points  spacing
  1. axis:    no     8.197401    0.000000    0.000000    40     0.2049
  2. axis:    no     0.000000    7.926960    0.000000    40     0.1982
  3. axis:    no     0.000000    0.000000    7.000000    36     0.1944

  Lengths:   8.197401   7.926960   7.000000
  Angles:   90.000000  90.000000  90.000000

Effective grid spacing dv^(1/3) = 0.1991

     iter     time        total  log10-change:
                         energy  eigst   dens
iter:   1 15:25:55   -10.586161       c
iter:   2 15:25:55    -9.555106       c -0.75
iter:   3 15:25:55    -9.448909       c -0.98
iter:   4 15:25:55    -9.314393       c -1.10
iter:   5 15:25:55    -9.313920       c -2.32
iter:   6 15:25:55    -9.313802c      c -2.58
iter:   7 15:25:55    -9.313799c      c -3.17
iter:   8 15:25:55    -9.313800c      c -3.32
iter:   9 15:25:56    -9.313801c      c -3.59
iter:  10 15:25:56    -9.313801c      c -3.99
iter:  11 15:25:56    -9.313801c      c -4.25c

Converged after 11 iterations.

Dipole moment: (0.275848, -0.460189, -0.000000) |e|*Ang

Energy contributions relative to reference atoms: (reference = -2052.165985)

Kinetic:        +10.458087
Potential:       -9.397135
External:        +0.000000
XC:             -10.683236
Entropy (-ST):   +0.000000
Local:           +0.308483
--------------------------
Free energy:     -9.313801
Extrapolated:    -9.313801

 Band  Eigenvalues  Occupancy
    0    -24.20571    2.00000
    1    -12.07231    2.00000
    2     -7.86276    2.00000
    3     -6.55904    2.00000
    4     -4.40455    0.00000
    5      3.95181    0.00000

Fermi level: -5.48180

Gap: 2.154 eV
Transition (v -> c):
  (s=0, k=0, n=3, [0.00, 0.00, 0.00]) -> (s=0, k=0, n=4, [0.00, 0.00, 0.00])

Forces in eV/Ang:
  0 H    -3.95096   -4.33078    0.00000
  1 H     0.48468    3.55646    0.00000
  2 O     3.46402    0.68345    0.00000

System changes: positions 

Initializing position-dependent things.

Density initialized from wave functions
      .-------------------.  
     /|                   |  
    / |                   |  
   /  |                   |  
  /   |                   |  
 *    |                   |  
 |    |                   |  
 |    |     HO H          |  
 |    |                   |  
 |    .-------------------.  
 |   /                   /   
 |  /                   /    
 | /                   /     
 |/                   /      
 *-------------------*       

Positions:
   0 H      3.605107    3.352248    3.500000    ( 0.0000,  0.0000,  0.0000)
   1 H      4.713936    3.621335    3.500000    ( 0.0000,  0.0000,  0.0000)
   2 O      3.618181    4.450277    3.500000    ( 0.0000,  0.0000,  0.0000)

Unit cell:
           periodic     x           y           z      points  spacing
  1. axis:    no     8.197401    0.000000    0.000000    40     0.2049
  2. axis:    no     0.000000    7.926960    0.000000    40     0.1982
  3. axis:    no     0.000000    0.000000    7.000000    36     0.1944

  Lengths:   8.197401   7.926960   7.000000
  Angles:   90.000000  90.000000  90.000000

Effective grid spacing dv^(1/3) = 0.1991

     iter     time        total  log10-change:
                         energy  eigst   dens
iter:   1 15:25:56   -10.923194       c
iter:   2 15:25:56   -10.881639       c -1.35
iter:   3 15:25:56   -10.847182       c -1.51
iter:   4 15:25:56   -10.846388       c -2.24
iter:   5 15:25:56   -10.846136c      c -2.59
iter:   6 15:25:56   -10.846137c      c -3.34
iter:   7 15:25:56   -10.846138c      c -3.53
iter:   8 15:25:56   -10.846138c      c -3.87
iter:   9 15:25:56   -10.846138c      c -4.10c

Converged after 9 iterations.

Dipole moment: (0.221744, -0.478622, 0.000000) |e|*Ang

Energy contributions relative to reference atoms: (reference = -2052.165985)

Kinetic:         +4.524519
Potential:       -6.151613
External:        +0.000000
XC:              -9.531586
Entropy (-ST):   +0.000000
Local:           +0.312542
--------------------------
Free energy:    -10.846138
Extrapolated:   -10.846138

 Band  Eigenvalues  Occupancy
    0    -23.31749    2.00000
    1    -11.21588    2.00000
    2     -8.48054    2.00000
    3     -6.42784    2.00000
    4     -2.84359    0.00000
    5      1.60871    0.00000

Fermi level: -4.63572

Gap: 3.584 eV
Transition (v -> c):
  (s=0, k=0, n=3, [0.00, 0.00, 0.00]) -> (s=0, k=0, n=4, [0.00, 0.00, 0.00])

Forces in eV/Ang:
  0 H    -2.81056    2.13211    0.00000
  1 H    -1.73448    4.15728    0.00000
  2 O     4.53958   -6.30093    0.00000

System changes: positions 

Initializing position-dependent things.

Density initialized from wave functions
      .-------------------.  
     /|                   |  
    / |                   |  
   /  |                   |  
  /   |                   |  
 *    |                   |  
 |    |                   |  
 |    |    H O H          |  
 |    |                   |  
 |    .-------------------.  
 |   /                   /   
 |  /                   /    
 | /                   /     
 |/                   /      
 *-------------------*       

Positions:
   0 H      3.436659    3.244427    3.500000    ( 0.0000,  0.0000,  0.0000)
   1 H      4.703959    3.796945    3.500000    ( 0.0000,  0.0000,  0.0000)
   2 O      3.796453    4.379396    3.500000    ( 0.0000,  0.0000,  0.0000)

Unit cell:
           periodic     x           y           z      points  spacing
  1. axis:    no     8.197401    0.000000    0.000000    40     0.2049
  2. axis:    no     0.000000    7.926960    0.000000    40     0.1982
  3. axis:    no     0.000000    0.000000    7.000000    36     0.1944

  Lengths:   8.197401   7.926960   7.000000
  Angles:   90.000000  90.000000  90.000000

Effective grid spacing dv^(1/3) = 0.1991

     iter     time        total  log10-change:
                         energy  eigst   dens
iter:   1 15:25:56   -12.907186       c
iter:   2 15:25:56   -12.698302       c -1.13
iter:   3 15:25:56   -12.615324       c -1.33
iter:   4 15:25:56   -12.603002       c -1.69
iter:   5 15:25:56   -12.602097       c -2.22
iter:   6 15:25:57   -12.601779c      c -2.50
iter:   7 15:25:57   -12.601780c      c -3.30
iter:   8 15:25:57   -12.601781c      c -3.44
iter:   9 15:25:57   -12.601781c      c -4.06c

Converged after 9 iterations.

Dipole moment: (0.163008, -0.454846, 0.000000) |e|*Ang

Energy contributions relative to reference atoms: (reference = -2052.165985)

Kinetic:         +5.812669
Potential:       -8.000230
External:        +0.000000
XC:             -10.740302
Entropy (-ST):   +0.000000
Local:           +0.326083
--------------------------
Free energy:    -12.601781
Extrapolated:   -12.601781

 Band  Eigenvalues  Occupancy
    0    -23.54407    2.00000
    1    -10.08457    2.00000
    2     -9.92513    2.00000
    3     -6.42180    2.00000
    4     -0.77965    0.00000
    5      1.61456    0.00000

Fermi level: -3.60072

Gap: 5.642 eV
Transition (v -> c):
  (s=0, k=0, n=3, [0.00, 0.00, 0.00]) -> (s=0, k=0, n=4, [0.00, 0.00, 0.00])

Forces in eV/Ang:
  0 H    -0.16249    4.48578    0.00000
  1 H    -1.14510    2.69943    0.00000
  2 O     1.30143   -7.22287    0.00000

System changes: positions 

Initializing position-dependent things.

Density initialized from wave functions
      .-------------------.  
     /|                   |  
    / |                   |  
   /  |                   |  
  /   |                   |  
 *    |                   |  
 |    |                   |  
 |    |    H O H          |  
 |    |                   |  
 |    .-------------------.  
 |   /                   /   
 |  /                   /    
 | /                   /     
 |/                   /      
 *-------------------*       

Positions:
   0 H      3.356583    3.192153    3.500000    ( 0.0000,  0.0000,  0.0000)
   1 H      4.767165    3.986695    3.500000    ( 0.0000,  0.0000,  0.0000)
   2 O      3.812997    4.232529    3.500000    ( 0.0000,  0.0000,  0.0000)

Unit cell:
           periodic     x           y           z      points  spacing
  1. axis:    no     8.197401    0.000000    0.000000    40     0.2049
  2. axis:    no     0.000000    7.926960    0.000000    40     0.1982
  3. axis:    no     0.000000    0.000000    7.000000    36     0.1944

  Lengths:   8.197401   7.926960   7.000000
  Angles:   90.000000  90.000000  90.000000

Effective grid spacing dv^(1/3) = 0.1991

     iter     time        total  log10-change:
                         energy  eigst   dens
iter:   1 15:25:57   -13.476718       c
iter:   2 15:25:57   -13.368012       c -1.27
iter:   3 15:25:57   -13.343527       c -1.50
iter:   4 15:25:57   -13.334485       c -1.74
iter:   5 15:25:57   -13.334436       c -2.73
iter:   6 15:25:57   -13.334417c      c -2.94
iter:   7 15:25:57   -13.334419c      c -3.45
iter:   8 15:25:57   -13.334419c      c -3.74
iter:   9 15:25:57   -13.334419c      c -3.96
iter:  10 15:25:57   -13.334419c      c -4.47c

Converged after 10 iterations.

Dipole moment: (0.164616, -0.377812, 0.000000) |e|*Ang

Energy contributions relative to reference atoms: (reference = -2052.165985)

Kinetic:         +9.012570
Potential:      -10.495889
External:        +0.000000
XC:             -12.182931
Entropy (-ST):   +0.000000
Local:           +0.331831
--------------------------
Free energy:    -13.334419
Extrapolated:   -13.334419

 Band  Eigenvalues  Occupancy
    0    -23.79123    2.00000
    1    -11.63843    2.00000
    2     -8.74736    2.00000
    3     -6.38307    2.00000
    4      0.07172    0.00000
    5      2.61844    0.00000

Fermi level: -3.15568

Gap: 6.455 eV
Transition (v -> c):
  (s=0, k=0, n=3, [0.00, 0.00, 0.00]) -> (s=0, k=0, n=4, [0.00, 0.00, 0.00])

Forces in eV/Ang:
  0 H     1.69318    3.98176    0.00000
  1 H     0.19230   -0.00871    0.00000
  2 O    -1.88624   -4.01902    0.00000

System changes: positions 

Initializing position-dependent things.

Density initialized from wave functions
      .-------------------.  
     /|                   |  
    / |                   |  
   /  |                   |  
  /   |                   |  
 *    |                   |  
 |    |                   |  
 |    |    H O  H         |  
 |    |                   |  
 |    .-------------------.  
 |   /                   /   
 |  /                   /    
 | /                   /     
 |/                   /      
 *-------------------*       

Positions:
   0 H      3.356844    3.224247    3.500000    ( 0.0000,  0.0000,  0.0000)
   1 H      4.896582    4.094958    3.500000    ( 0.0000,  0.0000,  0.0000)
   2 O      3.683270    4.080309    3.500000    ( 0.0000,  0.0000,  0.0000)

Unit cell:
           periodic     x           y           z      points  spacing
  1. axis:    no     8.197401    0.000000    0.000000    40     0.2049
  2. axis:    no     0.000000    7.926960    0.000000    40     0.1982
  3. axis:    no     0.000000    0.000000    7.000000    36     0.1944

  Lengths:   8.197401   7.926960   7.000000
  Angles:   90.000000  90.000000  90.000000

Effective grid spacing dv^(1/3) = 0.1991

     iter     time        total  log10-change:
                         energy  eigst   dens
iter:   1 15:25:57   -12.899662       c
iter:   2 15:25:57   -12.773301       c -1.20
iter:   3 15:25:57   -12.718810       c -1.43
iter:   4 15:25:57   -12.719422       c -2.05
iter:   5 15:25:57   -12.719686c      c -2.33
iter:   6 15:25:58   -12.719709c      c -2.96
iter:   7 15:25:58   -12.719711c      c -3.27
iter:   8 15:25:58   -12.719713c      c -3.50
iter:   9 15:25:58   -12.719713c      c -3.95
iter:  10 15:25:58   -12.719713c      c -4.24c

Converged after 10 iterations.

Dipole moment: (0.255083, -0.278871, -0.000000) |e|*Ang

Energy contributions relative to reference atoms: (reference = -2052.165985)

Kinetic:        +10.408193
Potential:      -11.037290
External:        +0.000000
XC:             -12.423903
Entropy (-ST):   +0.000000
Local:           +0.333287
--------------------------
Free energy:    -12.719713
Extrapolated:   -12.719713

 Band  Eigenvalues  Occupancy
    0    -23.82987    2.00000
    1    -12.06026    2.00000
    2     -8.11677    2.00000
    3     -6.30287    2.00000
    4     -0.57763    0.00000
    5      3.10083    0.00000

Fermi level: -3.44025

Gap: 5.725 eV
Transition (v -> c):
  (s=0, k=0, n=3, [0.00, 0.00, 0.00]) -> (s=0, k=0, n=4, [0.00, 0.00, 0.00])

Forces in eV/Ang:
  0 H    -0.71323   -4.22971    0.00000
  1 H    -5.57179   -0.71291    0.00000
  2 O     6.26519    4.94548    0.00000

System changes: positions 

Initializing position-dependent things.

Density initialized from wave functions
      .-------------------.  
     /|                   |  
    / |                   |  
   /  |                   |  
  /   |                   |  
 *    |                   |  
 |    |                   |  
 |    |    H O H          |  
 |    |                   |  
 |    .-------------------.  
 |   /                   /   
 |  /                   /    
 | /                   /     
 |/                   /      
 *-------------------*       

Positions:
   0 H      3.356668    3.202555    3.500000    ( 0.0000,  0.0000,  0.0000)
   1 H      4.809109    4.021783    3.500000    ( 0.0000,  0.0000,  0.0000)
   2 O      3.770952    4.183195    3.500000    ( 0.0000,  0.0000,  0.0000)

Unit cell:
           periodic     x           y           z      points  spacing
  1. axis:    no     8.197401    0.000000    0.000000    40     0.2049
  2. axis:    no     0.000000    7.926960    0.000000    40     0.1982
  3. axis:    no     0.000000    0.000000    7.000000    36     0.1944

  Lengths:   8.197401   7.926960   7.000000
  Angles:   90.000000  90.000000  90.000000

Effective grid spacing dv^(1/3) = 0.1991

     iter     time        total  log10-change:
                         energy  eigst   dens
iter:   1 15:25:58   -13.574527       c
iter:   2 15:25:58   -13.525790       c -1.40
iter:   3 15:25:58   -13.505201       c -1.62
iter:   4 15:25:58   -13.505731       c -2.29
iter:   5 15:25:58   -13.505847c      c -2.68
iter:   6 15:25:58   -13.505855c      c -3.28
iter:   7 15:25:58   -13.505857c      c -3.59
iter:   8 15:25:58   -13.505857c      c -3.79
iter:   9 15:25:58   -13.505857c      c -4.58c

Converged after 9 iterations.

Dipole moment: (0.190789, -0.347059, 0.000000) |e|*Ang

Energy contributions relative to reference atoms: (reference = -2052.165985)

Kinetic:         +8.233854
Potential:       -9.938239
External:        +0.000000
XC:             -12.132454
Entropy (-ST):   +0.000000
Local:           +0.330982
--------------------------
Free energy:    -13.505857
Extrapolated:   -13.505857

 Band  Eigenvalues  Occupancy
    0    -23.63487    2.00000
    1    -11.86602    2.00000
    2     -8.50052    2.00000
    3     -6.34615    2.00000
    4      0.39225    0.00000
    5      2.44839    0.00000

Fermi level: -2.97695

Gap: 6.738 eV
Transition (v -> c):
  (s=0, k=0, n=3, [0.00, 0.00, 0.00]) -> (s=0, k=0, n=4, [0.00, 0.00, 0.00])

Forces in eV/Ang:
  0 H     1.34336    2.56005    0.00000
  1 H    -2.47176    0.10314    0.00000
  2 O     1.13991   -2.63705    0.00000

System changes: positions 

Initializing position-dependent things.

Density initialized from wave functions
      .-------------------.  
     /|                   |  
    / |                   |  
   /  |                   |  
  /   |                   |  
 *    |                   |  
 |    |                   |  
 |    |     HO H          |  
 |    |                   |  
 |    .-------------------.  
 |   /                   /   
 |  /                   /    
 | /                   /     
 |/                   /      
 *-------------------*       

Positions:
   0 H      3.467818    3.237341    3.500000    ( 0.0000,  0.0000,  0.0000)
   1 H      4.720648    4.048415    3.500000    ( 0.0000,  0.0000,  0.0000)
   2 O      3.749578    4.114830    3.500000    ( 0.0000,  0.0000,  0.0000)

Unit cell:
           periodic     x           y           z      points  spacing
  1. axis:    no     8.197401    0.000000    0.000000    40     0.2049
  2. axis:    no     0.000000    7.926960    0.000000    40     0.1982
  3. axis:    no     0.000000    0.000000    7.000000    36     0.1944

  Lengths:   8.197401   7.926960   7.000000
  Angles:   90.000000  90.000000  90.000000

Effective grid spacing dv^(1/3) = 0.1991

     iter     time        total  log10-change:
                         energy  eigst   dens
iter:   1 15:25:58   -13.660883       c
iter:   2 15:25:58   -13.612775       c -1.51
iter:   3 15:25:58   -13.605298       c -1.80
iter:   4 15:25:58   -13.604691       c -2.07
iter:   5 15:25:58   -13.604683c      c -2.91
iter:   6 15:25:59   -13.604679c      c -3.09
iter:   7 15:25:59   -13.604679c      c -3.92
iter:   8 15:25:59   -13.604679c      c -4.22c

Converged after 8 iterations.

Dipole moment: (0.221855, -0.313336, 0.000000) |e|*Ang

Energy contributions relative to reference atoms: (reference = -2052.165985)

Kinetic:        +17.342861
Potential:      -16.605349
External:        +0.000000
XC:             -14.680296
Entropy (-ST):   +0.000000
Local:           +0.338105
--------------------------
Free energy:    -13.604679
Extrapolated:   -13.604679

 Band  Eigenvalues  Occupancy
    0    -24.81763    2.00000
    1    -12.83240    2.00000
    2     -8.67904    2.00000
    3     -6.60332    2.00000
    4      1.32254    0.00000
    5      3.66657    0.00000

Fermi level: -2.64039

Gap: 7.926 eV
Transition (v -> c):
  (s=0, k=0, n=3, [0.00, 0.00, 0.00]) -> (s=0, k=0, n=4, [0.00, 0.00, 0.00])

Forces in eV/Ang:
  0 H    -1.22493   -3.51770    0.00000
  1 H     0.51229    0.03996    0.00000
  2 O     0.63890    3.55109    0.00000

System changes: positions 

Initializing position-dependent things.

Density initialized from wave functions
      .-------------------.  
     /|                   |  
    / |                   |  
   /  |                   |  
  /   |                   |  
 *    |                   |  
 |    |                   |  
 |    |    H O H          |  
 |    |                   |  
 |    .-------------------.  
 |   /                   /   
 |  /                   /    
 | /                   /     
 |/                   /      
 *-------------------*       

Positions:
   0 H      3.414915    3.220784    3.500000    ( 0.0000,  0.0000,  0.0000)
   1 H      4.762752    4.035739    3.500000    ( 0.0000,  0.0000,  0.0000)
   2 O      3.759751    4.147369    3.500000    ( 0.0000,  0.0000,  0.0000)

Unit cell:
           periodic     x           y           z      points  spacing
  1. axis:    no     8.197401    0.000000    0.000000    40     0.2049
  2. axis:    no     0.000000    7.926960    0.000000    40     0.1982
  3. axis:    no     0.000000    0.000000    7.000000    36     0.1944

  Lengths:   8.197401   7.926960   7.000000
  Angles:   90.000000  90.000000  90.000000

Effective grid spacing dv^(1/3) = 0.1991

     iter     time        total  log10-change:
                         energy  eigst   dens
iter:   1 15:25:59   -13.718085       c
iter:   2 15:25:59   -13.706263       c -1.81
iter:   3 15:25:59   -13.704833       c -2.13
iter:   4 15:25:59   -13.704771c      c -2.39
iter:   5 15:25:59   -13.704772c      c -3.20
iter:   6 15:25:59   -13.704775c      c -3.37
iter:   7 15:25:59   -13.704775c      c -4.27c

Converged after 7 iterations.

Dipole moment: (0.206634, -0.330604, -0.000000) |e|*Ang

Energy contributions relative to reference atoms: (reference = -2052.165985)

Kinetic:        +12.508779
Potential:      -13.125185
External:        +0.000000
XC:             -13.415453
Entropy (-ST):   +0.000000
Local:           +0.327084
--------------------------
Free energy:    -13.704775
Extrapolated:   -13.704775

 Band  Eigenvalues  Occupancy
    0    -24.21677    2.00000
    1    -12.36340    2.00000
    2     -8.58309    2.00000
    3     -6.47422    2.00000
    4      0.91534    0.00000
    5      3.11126    0.00000

Fermi level: -2.77944

Gap: 7.390 eV
Transition (v -> c):
  (s=0, k=0, n=3, [0.00, 0.00, 0.00]) -> (s=0, k=0, n=4, [0.00, 0.00, 0.00])

Forces in eV/Ang:
  0 H     0.17049    0.14928    0.00000
  1 H    -1.08494   -0.00882    0.00000
  2 O     0.90855   -0.07654    0.00000

System changes: positions 

Initializing position-dependent things.

Density initialized from wave functions
      .-------------------.  
     /|                   |  
    / |                   |  
   /  |                   |  
  /   |                   |  
 *    |                   |  
 |    |                   |  
 |    |    H O H          |  
 |    |                   |  
 |    .-------------------.  
 |   /                   /   
 |  /                   /    
 | /                   /     
 |/                   /      
 *-------------------*       

Positions:
   0 H      3.432319    3.228343    3.500000    ( 0.0000,  0.0000,  0.0000)
   1 H      4.735089    4.024582    3.500000    ( 0.0000,  0.0000,  0.0000)
   2 O      3.768896    4.156147    3.500000    ( 0.0000,  0.0000,  0.0000)

Unit cell:
           periodic     x           y           z      points  spacing
  1. axis:    no     8.197401    0.000000    0.000000    40     0.2049
  2. axis:    no     0.000000    7.926960    0.000000    40     0.1982
  3. axis:    no     0.000000    0.000000    7.000000    36     0.1944

  Lengths:   8.197401   7.926960   7.000000
  Angles:   90.000000  90.000000  90.000000

Effective grid spacing dv^(1/3) = 0.1991

     iter     time        total  log10-change:
                         energy  eigst   dens
iter:   1 15:25:59   -13.719084       c
iter:   2 15:25:59   -13.717274       c -2.19
iter:   3 15:25:59   -13.716736c      c -2.42
iter:   4 15:25:59   -13.716684c      c -2.77
iter:   5 15:25:59   -13.716684c      c -3.47
iter:   6 15:25:59   -13.716683c      c -3.67
iter:   7 15:25:59   -13.716683c      c -4.41c

Converged after 7 iterations.

Dipole moment: (0.201712, -0.337605, 0.000000) |e|*Ang

Energy contributions relative to reference atoms: (reference = -2052.165985)

Kinetic:        +14.118990
Potential:      -14.333885
External:        +0.000000
XC:             -13.836761
Entropy (-ST):   +0.000000
Local:           +0.334972
--------------------------
Free energy:    -13.716683
Extrapolated:   -13.716683

 Band  Eigenvalues  Occupancy
    0    -24.44994    2.00000
    1    -12.43870    2.00000
    2     -8.70921    2.00000
    3     -6.52929    2.00000
    4      1.06435    0.00000
    5      3.29786    0.00000

Fermi level: -2.73247

Gap: 7.594 eV
Transition (v -> c):
  (s=0, k=0, n=3, [0.00, 0.00, 0.00]) -> (s=0, k=0, n=4, [0.00, 0.00, 0.00])

Forces in eV/Ang:
  0 H    -0.05865    0.11384    0.00000
  1 H     0.53425   -0.00293    0.00000
  2 O    -0.45392   -0.05745    0.00000

System changes: positions 

Initializing position-dependent things.

Density initialized from wave functions
      .-------------------.  
     /|                   |  
    / |                   |  
   /  |                   |  
  /   |                   |  
 *    |                   |  
 |    |                   |  
 |    |    H O H          |  
 |    |                   |  
 |    .-------------------.  
 |   /                   /   
 |  /                   /    
 | /                   /     
 |/                   /      
 *-------------------*       

Positions:
   0 H      3.426774    3.225935    3.500000    ( 0.0000,  0.0000,  0.0000)
   1 H      4.743902    4.028136    3.500000    ( 0.0000,  0.0000,  0.0000)
   2 O      3.765982    4.153350    3.500000    ( 0.0000,  0.0000,  0.0000)

Unit cell:
           periodic     x           y           z      points  spacing
  1. axis:    no     8.197401    0.000000    0.000000    40     0.2049
  2. axis:    no     0.000000    7.926960    0.000000    40     0.1982
  3. axis:    no     0.000000    0.000000    7.000000    36     0.1944

  Lengths:   8.197401   7.926960   7.000000
  Angles:   90.000000  90.000000  90.000000

Effective grid spacing dv^(1/3) = 0.1991

     iter     time        total  log10-change:
                         energy  eigst   dens
iter:   1 15:25:59   -13.719852       c
iter:   2 15:25:59   -13.719671       c -2.68
iter:   3 15:25:59   -13.719618c      c -2.91
iter:   4 15:26:00   -13.719613c      c -3.26
iter:   5 15:26:00   -13.719613c      c -3.96
iter:   6 15:26:00   -13.719613c      c -4.16c

Converged after 6 iterations.

Dipole moment: (0.203353, -0.335339, 0.000000) |e|*Ang

Energy contributions relative to reference atoms: (reference = -2052.165985)

Kinetic:        +13.589996
Potential:      -13.939195
External:        +0.000000
XC:             -13.700711
Entropy (-ST):   +0.000000
Local:           +0.330297
--------------------------
Free energy:    -13.719613
Extrapolated:   -13.719613

 Band  Eigenvalues  Occupancy
    0    -24.37305    2.00000
    1    -12.41576    2.00000
    2     -8.66836    2.00000
    3     -6.51152    2.00000
    4      1.02143    0.00000
    5      3.23672    0.00000

Fermi level: -2.74505

Gap: 7.533 eV
Transition (v -> c):
  (s=0, k=0, n=3, [0.00, 0.00, 0.00]) -> (s=0, k=0, n=4, [0.00, 0.00, 0.00])

Forces in eV/Ang:
  0 H     0.01315    0.12457    0.00000
  1 H    -0.01589    0.00586    0.00000
  2 O     0.01371   -0.07429    0.00000

System changes: positions 

Initializing position-dependent things.

Density initialized from wave functions
      .-------------------.  
     /|                   |  
    / |                   |  
   /  |                   |  
  /   |                   |  
 *    |                   |  
 |    |                   |  
 |    |    H O H          |  
 |    |                   |  
 |    .-------------------.  
 |   /                   /   
 |  /                   /    
 | /                   /     
 |/                   /      
 *-------------------*       

Positions:
   0 H      3.426495    3.230188    3.500000    ( 0.0000,  0.0000,  0.0000)
   1 H      4.744207    4.028418    3.500000    ( 0.0000,  0.0000,  0.0000)
   2 O      3.767061    4.154574    3.500000    ( 0.0000,  0.0000,  0.0000)

Unit cell:
           periodic     x           y           z      points  spacing
  1. axis:    no     8.197401    0.000000    0.000000    40     0.2049
  2. axis:    no     0.000000    7.926960    0.000000    40     0.1982
  3. axis:    no     0.000000    0.000000    7.000000    36     0.1944

  Lengths:   8.197401   7.926960   7.000000
  Angles:   90.000000  90.000000  90.000000

Effective grid spacing dv^(1/3) = 0.1991

     iter     time        total  log10-change:
                         energy  eigst   dens
iter:   1 15:26:00   -13.719938       c
iter:   2 15:26:00   -13.719922       c -3.23
iter:   3 15:26:00   -13.719918c      c -3.51
iter:   4 15:26:00   -13.719917c      c -3.86
iter:   5 15:26:00   -13.719917c      c -4.50c

Converged after 5 iterations.

Dipole moment: (0.202734, -0.335187, -0.000000) |e|*Ang

Energy contributions relative to reference atoms: (reference = -2052.165985)

Kinetic:        +13.710922
Potential:      -14.029026
External:        +0.000000
XC:             -13.735943
Entropy (-ST):   +0.000000
Local:           +0.334130
--------------------------
Free energy:    -13.719917
Extrapolated:   -13.719917

 Band  Eigenvalues  Occupancy
    0    -24.38855    2.00000
    1    -12.43311    2.00000
    2     -8.66721    2.00000
    3     -6.51484    2.00000
    4      1.03443    0.00000
    5      3.25314    0.00000

Fermi level: -2.74021

Gap: 7.549 eV
Transition (v -> c):
  (s=0, k=0, n=3, [0.00, 0.00, 0.00]) -> (s=0, k=0, n=4, [0.00, 0.00, 0.00])

Forces in eV/Ang:
  0 H    -0.02264    0.01856    0.00000
  1 H     0.01083    0.00241    0.00000
  2 O     0.03015    0.03373    0.00000

System changes: positions 

Initializing position-dependent things.

Density initialized from wave functions
      .-------------------.  
     /|                   |  
    / |                   |  
   /  |                   |  
  /   |                   |  
 *    |                   |  
 |    |                   |  
 |    |    H O H          |  
 |    |                   |  
 |    .-------------------.  
 |   /                   /   
 |  /                   /    
 | /                   /     
 |/                   /      
 *-------------------*       

Positions:
   0 H      3.424009    3.239564    3.500000    ( 0.0000,  0.0000,  0.0000)
   1 H      4.746737    4.028111    3.500000    ( 0.0000,  0.0000,  0.0000)
   2 O      3.771084    4.160194    3.500000    ( 0.0000,  0.0000,  0.0000)

Unit cell:
           periodic     x           y           z      points  spacing
  1. axis:    no     8.197401    0.000000    0.000000    40     0.2049
  2. axis:    no     0.000000    7.926960    0.000000    40     0.1982
  3. axis:    no     0.000000    0.000000    7.000000    36     0.1944

  Lengths:   8.197401   7.926960   7.000000
  Angles:   90.000000  90.000000  90.000000

Effective grid spacing dv^(1/3) = 0.1991

     iter     time        total  log10-change:
                         energy  eigst   dens
iter:   1 15:26:00   -13.720393       c
iter:   2 15:26:00   -13.720371       c -3.13
iter:   3 15:26:00   -13.720359c      c -3.33
iter:   4 15:26:00   -13.720359c      c -3.86
iter:   5 15:26:00   -13.720359c      c -4.32c

Converged after 5 iterations.

Dipole moment: (0.200326, -0.336222, 0.000000) |e|*Ang

Energy contributions relative to reference atoms: (reference = -2052.165985)

Kinetic:        +13.792917
Potential:      -14.087445
External:        +0.000000
XC:             -13.759215
Entropy (-ST):   +0.000000
Local:           +0.333384
--------------------------
Free energy:    -13.720359
Extrapolated:   -13.720359

 Band  Eigenvalues  Occupancy
    0    -24.39783    2.00000
    1    -12.44568    2.00000
    2     -8.66495    2.00000
    3     -6.51678    2.00000
    4      1.04291    0.00000
    5      3.26377    0.00000

Fermi level: -2.73693

Gap: 7.560 eV
Transition (v -> c):
  (s=0, k=0, n=3, [0.00, 0.00, 0.00]) -> (s=0, k=0, n=4, [0.00, 0.00, 0.00])

Forces in eV/Ang:
  0 H    -0.03852   -0.03859    0.00000
  1 H     0.03924   -0.00525    0.00000
  2 O     0.03001    0.07152    0.00000

System changes: positions 

Initializing position-dependent things.

Density initialized from wave functions
      .-------------------.  
     /|                   |  
    / |                   |  
   /  |                   |  
  /   |                   |  
 *    |                   |  
 |    |                   |  
 |    |    H O H          |  
 |    |                   |  
 |    .-------------------.  
 |   /                   /   
 |  /                   /    
 | /                   /     
 |/                   /      
 *-------------------*       

Positions:
   0 H      3.414066    3.277067    3.500000    ( 0.0000,  0.0000,  0.0000)
   1 H      4.756859    4.026887    3.500000    ( 0.0000,  0.0000,  0.0000)
   2 O      3.787176    4.182673    3.500000    ( 0.0000,  0.0000,  0.0000)

Unit cell:
           periodic     x           y           z      points  spacing
  1. axis:    no     8.197401    0.000000    0.000000    40     0.2049
  2. axis:    no     0.000000    7.926960    0.000000    40     0.1982
  3. axis:    no     0.000000    0.000000    7.000000    36     0.1944

  Lengths:   8.197401   7.926960   7.000000
  Angles:   90.000000  90.000000  90.000000

Effective grid spacing dv^(1/3) = 0.1991

     iter     time        total  log10-change:
                         energy  eigst   dens
iter:   1 15:26:00   -13.721371       c
iter:   2 15:26:00   -13.721050       c -2.54
iter:   3 15:26:00   -13.720876c      c -2.74
iter:   4 15:26:00   -13.720870c      c -3.29
iter:   5 15:26:00   -13.720869c      c -3.73
iter:   6 15:26:01   -13.720869c      c -3.97
iter:   7 15:26:01   -13.720869c      c -4.60c

Converged after 7 iterations.

Dipole moment: (0.190626, -0.340216, -0.000000) |e|*Ang

Energy contributions relative to reference atoms: (reference = -2052.165985)

Kinetic:        +14.082427
Potential:      -14.295237
External:        +0.000000
XC:             -13.841517
Entropy (-ST):   +0.000000
Local:           +0.333459
--------------------------
Free energy:    -13.720869
Extrapolated:   -13.720869

 Band  Eigenvalues  Occupancy
    0    -24.42967    2.00000
    1    -12.49216    2.00000
    2     -8.65466    2.00000
    3     -6.52326    2.00000
    4      1.07305    0.00000
    5      3.30084    0.00000

Fermi level: -2.72511

Gap: 7.596 eV
Transition (v -> c):
  (s=0, k=0, n=3, [0.00, 0.00, 0.00]) -> (s=0, k=0, n=4, [0.00, 0.00, 0.00])

Forces in eV/Ang:
  0 H    -0.10891   -0.23780    0.00000
  1 H     0.13439   -0.03613    0.00000
  2 O     0.00801    0.22992    0.00000

System changes: positions 

Initializing position-dependent things.

Density initialized from wave functions
      .-------------------.  
     /|                   |  
    / |                   |  
   /  |                   |  
  /   |                   |  
 *    |                   |  
 |    |                   |  
 |    |    H O H          |  
 |    |                   |  
 |    .-------------------.  
 |   /                   /   
 |  /                   /    
 | /                   /     
 |/                   /      
 *-------------------*       

Positions:
   0 H      3.418462    3.260487    3.500000    ( 0.0000,  0.0000,  0.0000)
   1 H      4.752384    4.027428    3.500000    ( 0.0000,  0.0000,  0.0000)
   2 O      3.780062    4.172735    3.500000    ( 0.0000,  0.0000,  0.0000)

Unit cell:
           periodic     x           y           z      points  spacing
  1. axis:    no     8.197401    0.000000    0.000000    40     0.2049
  2. axis:    no     0.000000    7.926960    0.000000    40     0.1982
  3. axis:    no     0.000000    0.000000    7.000000    36     0.1944

  Lengths:   8.197401   7.926960   7.000000
  Angles:   90.000000  90.000000  90.000000

Effective grid spacing dv^(1/3) = 0.1991

     iter     time        total  log10-change:
                         energy  eigst   dens
iter:   1 15:26:01   -13.720994       c
iter:   2 15:26:01   -13.720930       c -2.89
iter:   3 15:26:01   -13.720896c      c -3.09
iter:   4 15:26:01   -13.720895c      c -3.64
iter:   5 15:26:01   -13.720894c      c -4.08c

Converged after 5 iterations.

Dipole moment: (0.194942, -0.338511, -0.000000) |e|*Ang

Energy contributions relative to reference atoms: (reference = -2052.165985)

Kinetic:        +13.966294
Potential:      -14.209863
External:        +0.000000
XC:             -13.807873
Entropy (-ST):   +0.000000
Local:           +0.330547
--------------------------
Free energy:    -13.720894
Extrapolated:   -13.720894

 Band  Eigenvalues  Occupancy
    0    -24.41627    2.00000
    1    -12.47212    2.00000
    2     -8.65907    2.00000
    3     -6.52035    2.00000
    4      1.06060    0.00000
    5      3.28571    0.00000

Fermi level: -2.72987

Gap: 7.581 eV
Transition (v -> c):
  (s=0, k=0, n=3, [0.00, 0.00, 0.00]) -> (s=0, k=0, n=4, [0.00, 0.00, 0.00])

Forces in eV/Ang:
  0 H    -0.08035   -0.14753    0.00000
  1 H     0.09573   -0.02314    0.00000
  2 O     0.02362    0.17225    0.00000

System changes: positions 

Initializing position-dependent things.

Density initialized from wave functions
      .-------------------.  
     /|                   |  
    / |                   |  
   /  |                   |  
  /   |                   |  
 *    |                   |  
 |    |                   |  
 |    |    H O H          |  
 |    |                   |  
 |    .-------------------.  
 |   /                   /   
 |  /                   /    
 | /                   /     
 |/                   /      
 *-------------------*       

Positions:
   0 H      3.408852    3.285853    3.500000    ( 0.0000,  0.0000,  0.0000)
   1 H      4.763029    4.023316    3.500000    ( 0.0000,  0.0000,  0.0000)
   2 O      3.793653    4.189497    3.500000    ( 0.0000,  0.0000,  0.0000)

Unit cell:
           periodic     x           y           z      points  spacing
  1. axis:    no     8.197401    0.000000    0.000000    40     0.2049
  2. axis:    no     0.000000    7.926960    0.000000    40     0.1982
  3. axis:    no     0.000000    0.000000    7.000000    36     0.1944

  Lengths:   8.197401   7.926960   7.000000
  Angles:   90.000000  90.000000  90.000000

Effective grid spacing dv^(1/3) = 0.1991

     iter     time        total  log10-change:
                         energy  eigst   dens
iter:   1 15:26:01   -13.721863       c
iter:   2 15:26:01   -13.721709       c -2.68
iter:   3 15:26:01   -13.721608c      c -2.85
iter:   4 15:26:01   -13.721606c      c -3.54
iter:   5 15:26:01   -13.721606c      c -4.12c

Converged after 5 iterations.

Dipole moment: (0.186706, -0.342419, 0.000000) |e|*Ang

Energy contributions relative to reference atoms: (reference = -2052.165985)

Kinetic:        +13.901288
Potential:      -14.163001
External:        +0.000000
XC:             -13.792800
Entropy (-ST):   +0.000000
Local:           +0.332908
--------------------------
Free energy:    -13.721606
Extrapolated:   -13.721606

 Band  Eigenvalues  Occupancy
    0    -24.40510    2.00000
    1    -12.47676    2.00000
    2     -8.64744    2.00000
    3     -6.51769    2.00000
    4      1.05611    0.00000
    5      3.27881    0.00000

Fermi level: -2.73079

Gap: 7.574 eV
Transition (v -> c):
  (s=0, k=0, n=3, [0.00, 0.00, 0.00]) -> (s=0, k=0, n=4, [0.00, 0.00, 0.00])

Forces in eV/Ang:
  0 H    -0.04312   -0.12522    0.00000
  1 H     0.05861   -0.03629    0.00000
  2 O     0.02521    0.12046    0.00000

System changes: positions 

Initializing position-dependent things.

Density initialized from wave functions
      .-------------------.  
     /|                   |  
    / |                   |  
   /  |                   |  
  /   |                   |  
 *    |                   |  
 |    |                   |  
 |    |    H O H          |  
 |    |                   |  
 |    .-------------------.  
 |   /                   /   
 |  /                   /    
 | /                   /     
 |/                   /      
 *-------------------*       

Positions:
   0 H      3.405485    3.292181    3.500000    ( 0.0000,  0.0000,  0.0000)
   1 H      4.768563    4.017867    3.500000    ( 0.0000,  0.0000,  0.0000)
   2 O      3.800020    4.194609    3.500000    ( 0.0000,  0.0000,  0.0000)

Unit cell:
           periodic     x           y           z      points  spacing
  1. axis:    no     8.197401    0.000000    0.000000    40     0.2049
  2. axis:    no     0.000000    7.926960    0.000000    40     0.1982
  3. axis:    no     0.000000    0.000000    7.000000    36     0.1944

  Lengths:   8.197401   7.926960   7.000000
  Angles:   90.000000  90.000000  90.000000

Effective grid spacing dv^(1/3) = 0.1991

     iter     time        total  log10-change:
                         energy  eigst   dens
iter:   1 15:26:01   -13.722186       c
iter:   2 15:26:01   -13.722152       c -3.00
iter:   3 15:26:01   -13.722138c      c -3.20
iter:   4 15:26:01   -13.722137c      c -3.61
iter:   5 15:26:01   -13.722137c      c -4.21c

Converged after 5 iterations.

Dipole moment: (0.183119, -0.344843, 0.000000) |e|*Ang

Energy contributions relative to reference atoms: (reference = -2052.165985)

Kinetic:        +13.742346
Potential:      -14.047180
External:        +0.000000
XC:             -13.748345
Entropy (-ST):   +0.000000
Local:           +0.331042
--------------------------
Free energy:    -13.722137
Extrapolated:   -13.722137

 Band  Eigenvalues  Occupancy
    0    -24.38553    2.00000
    1    -12.45664    2.00000
    2     -8.64770    2.00000
    3     -6.51364    2.00000
    4      1.04000    0.00000
    5      3.25845    0.00000

Fermi level: -2.73682

Gap: 7.554 eV
Transition (v -> c):
  (s=0, k=0, n=3, [0.00, 0.00, 0.00]) -> (s=0, k=0, n=4, [0.00, 0.00, 0.00])

Forces in eV/Ang:
  0 H     0.01380   -0.00727    0.00000
  1 H     0.01220   -0.02848    0.00000
  2 O     0.04249    0.00957    0.00000

System changes: positions 

Initializing position-dependent things.

Density initialized from wave functions
      .-------------------.  
     /|                   |  
    / |                   |  
   /  |                   |  
  /   |                   |  
 *    |                   |  
 |    |                   |  
 |    |    H O H          |  
 |    |                   |  
 |    .-------------------.  
 |   /                   /   
 |  /                   /    
 | /                   /     
 |/                   /      
 *-------------------*       

Positions:
   0 H      3.392017    3.317492    3.500000    ( 0.0000,  0.0000,  0.0000)
   1 H      4.790703    3.996073    3.500000    ( 0.0000,  0.0000,  0.0000)
   2 O      3.825488    4.215056    3.500000    ( 0.0000,  0.0000,  0.0000)

Unit cell:
           periodic     x           y           z      points  spacing
  1. axis:    no     8.197401    0.000000    0.000000    40     0.2049
  2. axis:    no     0.000000    7.926960    0.000000    40     0.1982
  3. axis:    no     0.000000    0.000000    7.000000    36     0.1944

  Lengths:   8.197401   7.926960   7.000000
  Angles:   90.000000  90.000000  90.000000

Effective grid spacing dv^(1/3) = 0.1991

     iter     time        total  log10-change:
                         energy  eigst   dens
iter:   1 15:26:01   -13.719143       c
iter:   2 15:26:01   -13.718469       c -2.37
iter:   3 15:26:02   -13.718234c      c -2.59
iter:   4 15:26:02   -13.718208c      c -2.96
iter:   5 15:26:02   -13.718207c      c -3.59
iter:   6 15:26:02   -13.718207c      c -3.77
iter:   7 15:26:02   -13.718207c      c -4.51c

Converged after 7 iterations.

Dipole moment: (0.169128, -0.353999, 0.000000) |e|*Ang

Energy contributions relative to reference atoms: (reference = -2052.165985)

Kinetic:        +13.025892
Potential:      -13.529706
External:        +0.000000
XC:             -13.547802
Entropy (-ST):   +0.000000
Local:           +0.333409
--------------------------
Free energy:    -13.718207
Extrapolated:   -13.718207

 Band  Eigenvalues  Occupancy
    0    -24.29839    2.00000
    1    -12.36762    2.00000
    2     -8.64869    2.00000
    3     -6.49561    2.00000
    4      0.96514    0.00000
    5      3.16524    0.00000

Fermi level: -2.76523

Gap: 7.461 eV
Transition (v -> c):
  (s=0, k=0, n=3, [0.00, 0.00, 0.00]) -> (s=0, k=0, n=4, [0.00, 0.00, 0.00])

Forces in eV/Ang:
  0 H     0.24920    0.47866    0.00000
  1 H    -0.22588    0.02624    0.00000
  2 O     0.01868   -0.50864    0.00000

System changes: positions 

Initializing position-dependent things.

Density initialized from wave functions
      .-------------------.  
     /|                   |  
    / |                   |  
   /  |                   |  
  /   |                   |  
 *    |                   |  
 |    |                   |  
 |    |    H O H          |  
 |    |                   |  
 |    .-------------------.  
 |   /                   /   
 |  /                   /    
 | /                   /     
 |/                   /      
 *-------------------*       

Positions:
   0 H      3.404001    3.294969    3.500000    ( 0.0000,  0.0000,  0.0000)
   1 H      4.771002    4.015467    3.500000    ( 0.0000,  0.0000,  0.0000)
   2 O      3.802825    4.196861    3.500000    ( 0.0000,  0.0000,  0.0000)

Unit cell:
           periodic     x           y           z      points  spacing
  1. axis:    no     8.197401    0.000000    0.000000    40     0.2049
  2. axis:    no     0.000000    7.926960    0.000000    40     0.1982
  3. axis:    no     0.000000    0.000000    7.000000    36     0.1944

  Lengths:   8.197401   7.926960   7.000000
  Angles:   90.000000  90.000000  90.000000

Effective grid spacing dv^(1/3) = 0.1991

     iter     time        total  log10-change:
                         energy  eigst   dens
iter:   1 15:26:02   -13.722919       c
iter:   2 15:26:02   -13.722457       c -2.44
iter:   3 15:26:02   -13.722283c      c -2.64
iter:   4 15:26:02   -13.722265c      c -3.03
iter:   5 15:26:02   -13.722265c      c -3.66
iter:   6 15:26:02   -13.722264c      c -3.84
iter:   7 15:26:02   -13.722264c      c -4.60c

Converged after 7 iterations.

Dipole moment: (0.181539, -0.345854, 0.000000) |e|*Ang

Energy contributions relative to reference atoms: (reference = -2052.165985)

Kinetic:        +13.664578
Potential:      -13.993741
External:        +0.000000
XC:             -13.727509
Entropy (-ST):   +0.000000
Local:           +0.334408
--------------------------
Free energy:    -13.722264
Extrapolated:   -13.722264

 Band  Eigenvalues  Occupancy
    0    -24.37690    2.00000
    1    -12.44771    2.00000
    2     -8.64803    2.00000
    3     -6.51193    2.00000
    4      1.03240    0.00000
    5      3.24898    0.00000

Fermi level: -2.73976

Gap: 7.544 eV
Transition (v -> c):
  (s=0, k=0, n=3, [0.00, 0.00, 0.00]) -> (s=0, k=0, n=4, [0.00, 0.00, 0.00])

Forces in eV/Ang:
  0 H     0.03906    0.04595    0.00000
  1 H    -0.00866   -0.02295    0.00000
  2 O     0.03462   -0.05721    0.00000

System changes: positions 

Initializing position-dependent things.

Density initialized from wave functions
      .-------------------.  
     /|                   |  
    / |                   |  
   /  |                   |  
  /   |                   |  
 *    |                   |  
 |    |                   |  
 |    |    H O H          |  
 |    |                   |  
 |    .-------------------.  
 |   /                   /   
 |  /                   /    
 | /                   /     
 |/                   /      
 *-------------------*       

Positions:
   0 H      3.397525    3.318506    3.500000    ( 0.0000,  0.0000,  0.0000)
   1 H      4.786655    4.002507    3.500000    ( 0.0000,  0.0000,  0.0000)
   2 O      3.822730    4.212029    3.500000    ( 0.0000,  0.0000,  0.0000)

Unit cell:
           periodic     x           y           z      points  spacing
  1. axis:    no     8.197401    0.000000    0.000000    40     0.2049
  2. axis:    no     0.000000    7.926960    0.000000    40     0.1982
  3. axis:    no     0.000000    0.000000    7.000000    36     0.1944

  Lengths:   8.197401   7.926960   7.000000
  Angles:   90.000000  90.000000  90.000000

Effective grid spacing dv^(1/3) = 0.1991

     iter     time        total  log10-change:
                         energy  eigst   dens
iter:   1 15:26:02   -13.721715       c
iter:   2 15:26:02   -13.721486       c -2.59
iter:   3 15:26:02   -13.721352c      c -2.77
iter:   4 15:26:02   -13.721348c      c -3.35
iter:   5 15:26:02   -13.721347c      c -3.78
iter:   6 15:26:02   -13.721347c      c -4.02c

Converged after 6 iterations.

Dipole moment: (0.171718, -0.351382, 0.000000) |e|*Ang

Energy contributions relative to reference atoms: (reference = -2052.165985)

Kinetic:        +13.462411
Potential:      -13.846434
External:        +0.000000
XC:             -13.671091
Entropy (-ST):   +0.000000
Local:           +0.333767
--------------------------
Free energy:    -13.721347
Extrapolated:   -13.721347

 Band  Eigenvalues  Occupancy
    0    -24.35172    2.00000
    1    -12.42349    2.00000
    2     -8.64724    2.00000
    3     -6.50677    2.00000
    4      1.01154    0.00000
    5      3.22280    0.00000

Fermi level: -2.74761

Gap: 7.518 eV
Transition (v -> c):
  (s=0, k=0, n=3, [0.00, 0.00, 0.00]) -> (s=0, k=0, n=4, [0.00, 0.00, 0.00])

Forces in eV/Ang:
  0 H     0.11547    0.19626    0.00000
  1 H    -0.08302   -0.00126    0.00000
  2 O    -0.00506   -0.21873    0.00000

System changes: positions 

Initializing position-dependent things.

Density initialized from wave functions
      .-------------------.  
     /|                   |  
    / |                   |  
   /  |                   |  
  /   |                   |  
 *    |                   |  
 |    |                   |  
 |    |    H O H          |  
 |    |                   |  
 |    .-------------------.  
 |   /                   /   
 |  /                   /    
 | /                   /     
 |/                   /      
 *-------------------*       

Positions:
   0 H      3.403180    3.297955    3.500000    ( 0.0000,  0.0000,  0.0000)
   1 H      4.772988    4.013822    3.500000    ( 0.0000,  0.0000,  0.0000)
   2 O      3.805350    4.198786    3.500000    ( 0.0000,  0.0000,  0.0000)

Unit cell:
           periodic     x           y           z      points  spacing
  1. axis:    no     8.197401    0.000000    0.000000    40     0.2049
  2. axis:    no     0.000000    7.926960    0.000000    40     0.1982
  3. axis:    no     0.000000    0.000000    7.000000    36     0.1944

  Lengths:   8.197401   7.926960   7.000000
  Angles:   90.000000  90.000000  90.000000

Effective grid spacing dv^(1/3) = 0.1991

     iter     time        total  log10-change:
                         energy  eigst   dens
iter:   1 15:26:02   -13.722610       c
iter:   2 15:26:03   -13.722444       c -2.66
iter:   3 15:26:03   -13.722344c      c -2.83
iter:   4 15:26:03   -13.722341c      c -3.44
iter:   5 15:26:03   -13.722340c      c -3.85
iter:   6 15:26:03   -13.722340c      c -4.11c

Converged after 6 iterations.

Dipole moment: (0.180266, -0.346583, -0.000000) |e|*Ang

Energy contributions relative to reference atoms: (reference = -2052.165985)

Kinetic:        +13.642196
Potential:      -13.977521
External:        +0.000000
XC:             -13.721280
Entropy (-ST):   +0.000000
Local:           +0.334264
--------------------------
Free energy:    -13.722340
Extrapolated:   -13.722340

 Band  Eigenvalues  Occupancy
    0    -24.37424    2.00000
    1    -12.44509    2.00000
    2     -8.64803    2.00000
    3     -6.51142    2.00000
    4      1.03013    0.00000
    5      3.24611    0.00000

Fermi level: -2.74065

Gap: 7.542 eV
Transition (v -> c):
  (s=0, k=0, n=3, [0.00, 0.00, 0.00]) -> (s=0, k=0, n=4, [0.00, 0.00, 0.00])

Forces in eV/Ang:
  0 H     0.04834    0.06555    0.00000
  1 H    -0.01552   -0.01984    0.00000
  2 O     0.02186   -0.08743    0.00000

System changes: positions 

Initializing position-dependent things.

Density initialized from wave functions
      .-------------------.  
     /|                   |  
    / |                   |  
   /  |                   |  
  /   |                   |  
 *    |                   |  
 |    |                   |  
 |    |    H O H          |  
 |    |                   |  
 |    .-------------------.  
 |   /                   /   
 |  /                   /    
 | /                   /     
 |/                   /      
 *-------------------*       

Positions:
   0 H      3.404878    3.299087    3.500000    ( 0.0000,  0.0000,  0.0000)
   1 H      4.776694    4.009258    3.500000    ( 0.0000,  0.0000,  0.0000)
   2 O      3.809937    4.198275    3.500000    ( 0.0000,  0.0000,  0.0000)

Unit cell:
           periodic     x           y           z      points  spacing
  1. axis:    no     8.197401    0.000000    0.000000    40     0.2049
  2. axis:    no     0.000000    7.926960    0.000000    40     0.1982
  3. axis:    no     0.000000    0.000000    7.000000    36     0.1944

  Lengths:   8.197401   7.926960   7.000000
  Angles:   90.000000  90.000000  90.000000

Effective grid spacing dv^(1/3) = 0.1991

     iter     time        total  log10-change:
                         energy  eigst   dens
iter:   1 15:26:03   -13.722608       c
iter:   2 15:26:03   -13.722603       c -3.43
iter:   3 15:26:03   -13.722599c      c -3.60
iter:   4 15:26:03   -13.722599c      c -4.28c

Converged after 4 iterations.

Dipole moment: (0.179082, -0.347334, 0.000000) |e|*Ang

Energy contributions relative to reference atoms: (reference = -2052.165985)

Kinetic:        +13.661470
Potential:      -13.991989
External:        +0.000000
XC:             -13.726142
Entropy (-ST):   +0.000000
Local:           +0.334061
--------------------------
Free energy:    -13.722599
Extrapolated:   -13.722599

 Band  Eigenvalues  Occupancy
    0    -24.37745    2.00000
    1    -12.44467    2.00000
    2     -8.65083    2.00000
    3     -6.51220    2.00000
    4      1.03182    0.00000
    5      3.24836    0.00000

Fermi level: -2.74019

Gap: 7.544 eV
Transition (v -> c):
  (s=0, k=0, n=3, [0.00, 0.00, 0.00]) -> (s=0, k=0, n=4, [0.00, 0.00, 0.00])

Forces in eV/Ang:
  0 H     0.04015    0.05502    0.00000
  1 H    -0.01378   -0.00980    0.00000
  2 O     0.00476   -0.08735    0.00000

System changes: positions 

Initializing position-dependent things.

Density initialized from wave functions
      .-------------------.  
     /|                   |  
    / |                   |  
   /  |                   |  
  /   |                   |  
 *    |                   |  
 |    |                   |  
 |    |    H O H          |  
 |    |                   |  
 |    .-------------------.  
 |   /                   /   
 |  /                   /    
 | /                   /     
 |/                   /      
 *-------------------*       

Positions:
   0 H      3.411673    3.303614    3.500000    ( 0.0000,  0.0000,  0.0000)
   1 H      4.791519    3.990998    3.500000    ( 0.0000,  0.0000,  0.0000)
   2 O      3.828284    4.196235    3.500000    ( 0.0000,  0.0000,  0.0000)

Unit cell:
           periodic     x           y           z      points  spacing
  1. axis:    no     8.197401    0.000000    0.000000    40     0.2049
  2. axis:    no     0.000000    7.926960    0.000000    40     0.1982
  3. axis:    no     0.000000    0.000000    7.000000    36     0.1944

  Lengths:   8.197401   7.926960   7.000000
  Angles:   90.000000  90.000000  90.000000

Effective grid spacing dv^(1/3) = 0.1991

     iter     time        total  log10-change:
                         energy  eigst   dens
iter:   1 15:26:03   -13.723365       c
iter:   2 15:26:03   -13.723282       c -2.83
iter:   3 15:26:03   -13.723229c      c -3.00
iter:   4 15:26:03   -13.723228c      c -3.69
iter:   5 15:26:03   -13.723227c      c -4.26c

Converged after 5 iterations.

Dipole moment: (0.174216, -0.350374, -0.000000) |e|*Ang

Energy contributions relative to reference atoms: (reference = -2052.165985)

Kinetic:        +13.728813
Potential:      -14.043112
External:        +0.000000
XC:             -13.742816
Entropy (-ST):   +0.000000
Local:           +0.333889
--------------------------
Free energy:    -13.723227
Extrapolated:   -13.723227

 Band  Eigenvalues  Occupancy
    0    -24.38835    2.00000
    1    -12.44137    2.00000
    2     -8.66158    2.00000
    3     -6.51468    2.00000
    4      1.03731    0.00000
    5      3.25593    0.00000

Fermi level: -2.73868

Gap: 7.552 eV
Transition (v -> c):
  (s=0, k=0, n=3, [0.00, 0.00, 0.00]) -> (s=0, k=0, n=4, [0.00, 0.00, 0.00])

Forces in eV/Ang:
  0 H     0.00340    0.01654    0.00000
  1 H    -0.00689   -0.00022    0.00000
  2 O     0.05865   -0.06489    0.00000

System changes: positions 

Initializing position-dependent things.

Density initialized from wave functions
      .-------------------.  
     /|                   |  
    / |                   |  
   /  |                   |  
  /   |                   |  
 *    |                   |  
 |    |                   |  
 |    |    H O H          |  
 |    |                   |  
 |    .-------------------.  
 |   /                   /   
 |  /                   /    
 | /                   /     
 |/                   /      
 *-------------------*       

Positions:
   0 H      3.438854    3.321723    3.500000    ( 0.0000,  0.0000,  0.0000)
   1 H      4.850820    3.917959    3.500000    ( 0.0000,  0.0000,  0.0000)
   2 O      3.901673    4.188073    3.500000    ( 0.0000,  0.0000,  0.0000)

Unit cell:
           periodic     x           y           z      points  spacing
  1. axis:    no     8.197401    0.000000    0.000000    40     0.2049
  2. axis:    no     0.000000    7.926960    0.000000    40     0.1982
  3. axis:    no     0.000000    0.000000    7.000000    36     0.1944

  Lengths:   8.197401   7.926960   7.000000
  Angles:   90.000000  90.000000  90.000000

Effective grid spacing dv^(1/3) = 0.1991

     iter     time        total  log10-change:
                         energy  eigst   dens
iter:   1 15:26:03   -13.727869       c
iter:   2 15:26:03   -13.726459       c -2.23
iter:   3 15:26:03   -13.725583c      c -2.40
iter:   4 15:26:03   -13.725561c      c -3.09
iter:   5 15:26:03   -13.725560c      c -3.59
iter:   6 15:26:04   -13.725560c      c -3.94
iter:   7 15:26:04   -13.725560c      c -4.30c

Converged after 7 iterations.

Dipole moment: (0.154219, -0.362142, -0.000000) |e|*Ang

Energy contributions relative to reference atoms: (reference = -2052.165985)

Kinetic:        +13.802542
Potential:      -14.107220
External:        +0.000000
XC:             -13.754341
Entropy (-ST):   +0.000000
Local:           +0.333460
--------------------------
Free energy:    -13.725560
Extrapolated:   -13.725560

 Band  Eigenvalues  Occupancy
    0    -24.40734    2.00000
    1    -12.40722    2.00000
    2     -8.70036    2.00000
    3     -6.51924    2.00000
    4      1.03828    0.00000
    5      3.26187    0.00000

Fermi level: -2.74048

Gap: 7.558 eV
Transition (v -> c):
  (s=0, k=0, n=3, [0.00, 0.00, 0.00]) -> (s=0, k=0, n=4, [0.00, 0.00, 0.00])

Forces in eV/Ang:
  0 H    -0.13867   -0.11024    0.00000
  1 H    -0.05865    0.06678    0.00000
  2 O     0.18540   -0.00080    0.00000

System changes: positions 

Initializing position-dependent things.

Density initialized from wave functions
      .-------------------.  
     /|                   |  
    / |                   |  
   /  |                   |  
  /   |                   |  
 *    |                   |  
 |    |                   |  
 |    |    H O H          |  
 |    |                   |  
 |    .-------------------.  
 |   /                   /   
 |  /                   /    
 | /                   /     
 |/                   /      
 *-------------------*       

Positions:
   0 H      3.438438    3.321245    3.500000    ( 0.0000,  0.0000,  0.0000)
   1 H      4.861311    3.908321    3.500000    ( 0.0000,  0.0000,  0.0000)
   2 O      3.915507    4.182652    3.500000    ( 0.0000,  0.0000,  0.0000)

Unit cell:
           periodic     x           y           z      points  spacing
  1. axis:    no     8.197401    0.000000    0.000000    40     0.2049
  2. axis:    no     0.000000    7.926960    0.000000    40     0.1982
  3. axis:    no     0.000000    0.000000    7.000000    36     0.1944

  Lengths:   8.197401   7.926960   7.000000
  Angles:   90.000000  90.000000  90.000000

Effective grid spacing dv^(1/3) = 0.1991

     iter     time        total  log10-change:
                         energy  eigst   dens
iter:   1 15:26:04   -13.725920       c
iter:   2 15:26:04   -13.725899       c -2.94
iter:   3 15:26:04   -13.725881c      c -3.09
iter:   4 15:26:04   -13.725881c      c -3.91
iter:   5 15:26:04   -13.725881c      c -4.29c

Converged after 5 iterations.

Dipole moment: (0.149287, -0.362346, 0.000000) |e|*Ang

Energy contributions relative to reference atoms: (reference = -2052.165985)

Kinetic:        +13.755215
Potential:      -14.066468
External:        +0.000000
XC:             -13.748601
Entropy (-ST):   +0.000000
Local:           +0.333973
--------------------------
Free energy:    -13.725881
Extrapolated:   -13.725881

 Band  Eigenvalues  Occupancy
    0    -24.39231    2.00000
    1    -12.43157    2.00000
    2     -8.66961    2.00000
    3     -6.51439    2.00000
    4      1.04014    0.00000
    5      3.26111    0.00000

Fermi level: -2.73712

Gap: 7.555 eV
Transition (v -> c):
  (s=0, k=0, n=3, [0.00, 0.00, 0.00]) -> (s=0, k=0, n=4, [0.00, 0.00, 0.00])

Forces in eV/Ang:
  0 H    -0.03588   -0.00936    0.00000
  1 H    -0.00068    0.01351    0.00000
  2 O    -0.02387    0.00205    0.00000

System changes: positions 

Initializing position-dependent things.

Density initialized from wave functions
      .-------------------.  
     /|                   |  
    / |                   |  
   /  |                   |  
  /   |                   |  
 *    |                   |  
 |    |                   |  
 |    |    H O H          |  
 |    |                   |  
 |    .-------------------.  
 |   /                   /   
 |  /                   /    
 | /                   /     
 |/                   /      
 *-------------------*       

Positions:
   0 H      3.438589    3.321418    3.500000    ( 0.0000,  0.0000,  0.0000)
   1 H      4.857513    3.911810    3.500000    ( 0.0000,  0.0000,  0.0000)
   2 O      3.910499    4.184614    3.500000    ( 0.0000,  0.0000,  0.0000)

Unit cell:
           periodic     x           y           z      points  spacing
  1. axis:    no     8.197401    0.000000    0.000000    40     0.2049
  2. axis:    no     0.000000    7.926960    0.000000    40     0.1982
  3. axis:    no     0.000000    0.000000    7.000000    36     0.1944

  Lengths:   8.197401   7.926960   7.000000
  Angles:   90.000000  90.000000  90.000000

Effective grid spacing dv^(1/3) = 0.1991

     iter     time        total  log10-change:
                         energy  eigst   dens
iter:   1 15:26:04   -13.726013       c
iter:   2 15:26:04   -13.726011       c -3.38
iter:   3 15:26:04   -13.726009c      c -3.53
iter:   4 15:26:04   -13.726008c      c -4.30c

Converged after 4 iterations.

Dipole moment: (0.151063, -0.362306, 0.000000) |e|*Ang

Energy contributions relative to reference atoms: (reference = -2052.165985)

Kinetic:        +13.771568
Potential:      -14.080514
External:        +0.000000
XC:             -13.751075
Entropy (-ST):   +0.000000
Local:           +0.334012
--------------------------
Free energy:    -13.726008
Extrapolated:   -13.726008

 Band  Eigenvalues  Occupancy
    0    -24.39779    2.00000
    1    -12.42291    2.00000
    2     -8.68046    2.00000
    3     -6.51604    2.00000
    4      1.03970    0.00000
    5      3.26157    0.00000

Fermi level: -2.73817

Gap: 7.556 eV
Transition (v -> c):
  (s=0, k=0, n=3, [0.00, 0.00, 0.00]) -> (s=0, k=0, n=4, [0.00, 0.00, 0.00])

Forces in eV/Ang:
  0 H    -0.07342   -0.04637    0.00000
  1 H    -0.02367    0.03432    0.00000
  2 O     0.03447    0.01091    0.00000

System changes: positions 

Initializing position-dependent things.

Density initialized from wave functions
      .-------------------.  
     /|                   |  
    / |                   |  
   /  |                   |  
  /   |                   |  
 *    |                   |  
 |    |                   |  
 |    |    H O H          |  
 |    |                   |  
 |    .-------------------.  
 |   /                   /   
 |  /                   /    
 | /                   /     
 |/                   /      
 *-------------------*       

Positions:
   0 H      3.411947    3.301601    3.500000    ( 0.0000,  0.0000,  0.0000)
   1 H      4.824657    3.958594    3.500000    ( 0.0000,  0.0000,  0.0000)
   2 O      3.871959    4.178182    3.500000    ( 0.0000,  0.0000,  0.0000)

Unit cell:
           periodic     x           y           z      points  spacing
  1. axis:    no     8.197401    0.000000    0.000000    40     0.2049
  2. axis:    no     0.000000    7.926960    0.000000    40     0.1982
  3. axis:    no     0.000000    0.000000    7.000000    36     0.1944

  Lengths:   8.197401   7.926960   7.000000
  Angles:   90.000000  90.000000  90.000000

Effective grid spacing dv^(1/3) = 0.1991

     iter     time        total  log10-change:
                         energy  eigst   dens
iter:   1 15:26:04   -13.723873       c
iter:   2 15:26:04   -13.722818       c -2.24
iter:   3 15:26:04   -13.722159c      c -2.41
iter:   4 15:26:04   -13.722140c      c -3.07
iter:   5 15:26:04   -13.722138c      c -3.51
iter:   6 15:26:04   -13.722138c      c -3.87
iter:   7 15:26:04   -13.722138c      c -4.36c

Converged after 7 iterations.

Dipole moment: (0.159066, -0.351697, -0.000000) |e|*Ang

Energy contributions relative to reference atoms: (reference = -2052.165985)

Kinetic:        +13.738147
Potential:      -14.023467
External:        +0.000000
XC:             -13.769789
Entropy (-ST):   +0.000000
Local:           +0.332972
--------------------------
Free energy:    -13.722138
Extrapolated:   -13.722138

 Band  Eigenvalues  Occupancy
    0    -24.36367    2.00000
    1    -12.52776    2.00000
    2     -8.57296    2.00000
    3     -6.50416    2.00000
    4      1.05403    0.00000
    5      3.27591    0.00000

Fermi level: -2.72506

Gap: 7.558 eV
Transition (v -> c):
  (s=0, k=0, n=3, [0.00, 0.00, 0.00]) -> (s=0, k=0, n=4, [0.00, 0.00, 0.00])

Forces in eV/Ang:
  0 H     0.23985    0.21261    0.00000
  1 H     0.26288   -0.18556    0.00000
  2 O    -0.45341   -0.03460    0.00000

System changes: positions 

Initializing position-dependent things.

Density initialized from wave functions
      .-------------------.  
     /|                   |  
    / |                   |  
   /  |                   |  
  /   |                   |  
 *    |                   |  
 |    |                   |  
 |    |    H O H          |  
 |    |                   |  
 |    .-------------------.  
 |   /                   /   
 |  /                   /    
 | /                   /     
 |/                   /      
 *-------------------*       

Positions:
   0 H      3.432643    3.316995    3.500000    ( 0.0000,  0.0000,  0.0000)
   1 H      4.850180    3.922252    3.500000    ( 0.0000,  0.0000,  0.0000)
   2 O      3.901898    4.183178    3.500000    ( 0.0000,  0.0000,  0.0000)

Unit cell:
           periodic     x           y           z      points  spacing
  1. axis:    no     8.197401    0.000000    0.000000    40     0.2049
  2. axis:    no     0.000000    7.926960    0.000000    40     0.1982
  3. axis:    no     0.000000    0.000000    7.000000    36     0.1944

  Lengths:   8.197401   7.926960   7.000000
  Angles:   90.000000  90.000000  90.000000

Effective grid spacing dv^(1/3) = 0.1991

     iter     time        total  log10-change:
                         energy  eigst   dens
iter:   1 15:26:04   -13.727477       c
iter:   2 15:26:05   -13.726809       c -2.34
iter:   3 15:26:05   -13.726399c      c -2.52
iter:   4 15:26:05   -13.726386c      c -3.18
iter:   5 15:26:05   -13.726385c      c -3.60
iter:   6 15:26:05   -13.726385c      c -3.96
iter:   7 15:26:05   -13.726385c      c -4.45c

Converged after 7 iterations.

Dipole moment: (0.152951, -0.359930, 0.000000) |e|*Ang

Energy contributions relative to reference atoms: (reference = -2052.165985)

Kinetic:        +13.773443
Potential:      -14.074807
External:        +0.000000
XC:             -13.758331
Entropy (-ST):   +0.000000
Local:           +0.333310
--------------------------
Free energy:    -13.726385
Extrapolated:   -13.726385

 Band  Eigenvalues  Occupancy
    0    -24.39150    2.00000
    1    -12.44748    2.00000
    2     -8.65696    2.00000
    3     -6.51378    2.00000
    4      1.04475    0.00000
    5      3.26602    0.00000

Fermi level: -2.73451

Gap: 7.559 eV
Transition (v -> c):
  (s=0, k=0, n=3, [0.00, 0.00, 0.00]) -> (s=0, k=0, n=4, [0.00, 0.00, 0.00])

Forces in eV/Ang:
  0 H    -0.00401    0.01557    0.00000
  1 H     0.05407   -0.03078    0.00000
  2 O    -0.07757   -0.02533    0.00000

System changes: positions 

Initializing position-dependent things.

Density initialized from wave functions
      .-------------------.  
     /|                   |  
    / |                   |  
   /  |                   |  
  /   |                   |  
 *    |                   |  
 |    |                   |  
 |    |    H O H          |  
 |    |                   |  
 |    .-------------------.  
 |   /                   /   
 |  /                   /    
 | /                   /     
 |/                   /      
 *-------------------*       

Positions:
   0 H      3.431358    3.313565    3.500000    ( 0.0000,  0.0000,  0.0000)
   1 H      4.848988    3.921413    3.500000    ( 0.0000,  0.0000,  0.0000)
   2 O      3.899228    4.180420    3.500000    ( 0.0000,  0.0000,  0.0000)

Unit cell:
           periodic     x           y           z      points  spacing
  1. axis:    no     8.197401    0.000000    0.000000    40     0.2049
  2. axis:    no     0.000000    7.926960    0.000000    40     0.1982
  3. axis:    no     0.000000    0.000000    7.000000    36     0.1944

  Lengths:   8.197401   7.926960   7.000000
  Angles:   90.000000  90.000000  90.000000

Effective grid spacing dv^(1/3) = 0.1991

     iter     time        total  log10-change:
                         energy  eigst   dens
iter:   1 15:26:05   -13.726538       c
iter:   2 15:26:05   -13.726537       c -3.73
iter:   3 15:26:05   -13.726537c      c -3.90
iter:   4 15:26:05   -13.726537c      c -4.24c

Converged after 4 iterations.

Dipole moment: (0.153689, -0.359540, 0.000000) |e|*Ang

Energy contributions relative to reference atoms: (reference = -2052.165985)

Kinetic:        +13.736997
Potential:      -14.047603
External:        +0.000000
XC:             -13.748399
Entropy (-ST):   +0.000000
Local:           +0.332467
--------------------------
Free energy:    -13.726537
Extrapolated:   -13.726537

 Band  Eigenvalues  Occupancy
    0    -24.38573    2.00000
    1    -12.44540    2.00000
    2     -8.65402    2.00000
    3     -6.51234    2.00000
    4      1.04149    0.00000
    5      3.26159    0.00000

Fermi level: -2.73543

Gap: 7.554 eV
Transition (v -> c):
  (s=0, k=0, n=3, [0.00, 0.00, 0.00]) -> (s=0, k=0, n=4, [0.00, 0.00, 0.00])

Forces in eV/Ang:
  0 H     0.00042    0.01577    0.00000
  1 H     0.01060   -0.02194    0.00000
  2 O    -0.03475   -0.02655    0.00000

System changes: positions 

Initializing position-dependent things.

Density initialized from wave functions
      .-------------------.  
     /|                   |  
    / |                   |  
   /  |                   |  
  /   |                   |  
 *    |                   |  
 |    |                   |  
 |    |    H O H          |  
 |    |                   |  
 |    .-------------------.  
 |   /                   /   
 |  /                   /    
 | /                   /     
 |/                   /      
 *-------------------*       

Positions:
   0 H      3.428354    3.305541    3.500000    ( 0.0000,  0.0000,  0.0000)
   1 H      4.846197    3.919453    3.500000    ( 0.0000,  0.0000,  0.0000)
   2 O      3.892984    4.173968    3.500000    ( 0.0000,  0.0000,  0.0000)

Unit cell:
           periodic     x           y           z      points  spacing
  1. axis:    no     8.197401    0.000000    0.000000    40     0.2049
  2. axis:    no     0.000000    7.926960    0.000000    40     0.1982
  3. axis:    no     0.000000    0.000000    7.000000    36     0.1944

  Lengths:   8.197401   7.926960   7.000000
  Angles:   90.000000  90.000000  90.000000

Effective grid spacing dv^(1/3) = 0.1991

     iter     time        total  log10-change:
                         energy  eigst   dens
iter:   1 15:26:05   -13.726477       c
iter:   2 15:26:05   -13.726472       c -3.35
iter:   3 15:26:05   -13.726471c      c -3.53
iter:   4 15:26:05   -13.726470c      c -3.87
iter:   5 15:26:05   -13.726470c      c -4.60c

Converged after 5 iterations.

Dipole moment: (0.155533, -0.358569, 0.000000) |e|*Ang

Energy contributions relative to reference atoms: (reference = -2052.165985)

Kinetic:        +13.644847
Potential:      -13.978500
External:        +0.000000
XC:             -13.724483
Entropy (-ST):   +0.000000
Local:           +0.331666
--------------------------
Free energy:    -13.726470
Extrapolated:   -13.726470

 Band  Eigenvalues  Occupancy
    0    -24.37233    2.00000
    1    -12.44049    2.00000
    2     -8.64718    2.00000
    3     -6.50906    2.00000
    4      1.03359    0.00000
    5      3.25114    0.00000

Fermi level: -2.73773

Gap: 7.543 eV
Transition (v -> c):
  (s=0, k=0, n=3, [0.00, 0.00, 0.00]) -> (s=0, k=0, n=4, [0.00, 0.00, 0.00])

Forces in eV/Ang:
  0 H     0.01233    0.01040    0.00000
  1 H    -0.09198   -0.00256    0.00000
  2 O     0.08137    0.00038    0.00000

System changes: positions 

Initializing position-dependent things.

Density initialized from wave functions
      .-------------------.  
     /|                   |  
    / |                   |  
   /  |                   |  
  /   |                   |  
 *    |                   |  
 |    |                   |  
 |    |    H O H          |  
 |    |                   |  
 |    .-------------------.  
 |   /                   /   
 |  /                   /    
 | /                   /     
 |/                   /      
 *-------------------*       

Positions:
   0 H      3.430206    3.310488    3.500000    ( 0.0000,  0.0000,  0.0000)
   1 H      4.847917    3.920661    3.500000    ( 0.0000,  0.0000,  0.0000)
   2 O      3.896833    4.177945    3.500000    ( 0.0000,  0.0000,  0.0000)

Unit cell:
           periodic     x           y           z      points  spacing
  1. axis:    no     8.197401    0.000000    0.000000    40     0.2049
  2. axis:    no     0.000000    7.926960    0.000000    40     0.1982
  3. axis:    no     0.000000    0.000000    7.000000    36     0.1944

  Lengths:   8.197401   7.926960   7.000000
  Angles:   90.000000  90.000000  90.000000

Effective grid spacing dv^(1/3) = 0.1991

     iter     time        total  log10-change:
                         energy  eigst   dens
iter:   1 15:26:05   -13.726594       c
iter:   2 15:26:05   -13.726592       c -3.56
iter:   3 15:26:05   -13.726591c      c -3.74
iter:   4 15:26:06   -13.726591c      c -4.08c

Converged after 4 iterations.

Dipole moment: (0.154396, -0.359164, 0.000000) |e|*Ang

Energy contributions relative to reference atoms: (reference = -2052.165985)

Kinetic:        +13.697277
Potential:      -14.019006
External:        +0.000000
XC:             -13.738888
Entropy (-ST):   +0.000000
Local:           +0.334026
--------------------------
Free energy:    -13.726591
[...]

 Band  Eigenvalues  Occupancy
    0    -24.38731    2.00000
    1    -12.44335    2.00000
    2     -8.65673    2.00000
    3     -6.51274    2.00000
    4      1.04168    0.00000
    5      3.26198    0.00000

Fermi level: -2.73553

Gap: 7.554 eV
Transition (v -> c):
  (s=0, k=0, n=3, [0.00, 0.00, 0.00]) -> (s=0, k=0, n=4, [0.00, 0.00, 0.00])

Forces in eV/Ang:
  0 H    -0.00000    0.00030    0.00000
  1 H    -0.00025    0.00002    0.00000
  2 O    -0.00088   -0.00134    0.00000

System changes: positions 

Initializing position-dependent things.

Density initialized from wave functions
      .-------------------.  
     /|                   |  
    / |                   |  
   /  |                   |  
  /   |                   |  
 *    |                   |  
 |    |                   |  
 |    |    H O H          |  
 |    |                   |  
 |    .-------------------.  
 |   /                   /   
 |  /                   /    
 | /                   /     
 |/                   /      
 *-------------------*       

Positions:
   0 H      3.416424    3.317257    3.500000    ( 0.0000,  0.0000,  0.0000)
   1 H      4.842213    3.904030    3.500000    ( 0.0000,  0.0000,  0.0000)
   2 O      3.896090    4.177164    3.500000    ( 0.0000,  0.0000,  0.0000)

Unit cell:
           periodic     x           y           z      points  spacing
  1. axis:    no     8.197401    0.000000    0.000000    40     0.2049
  2. axis:    no     0.000000    7.926960    0.000000    40     0.1982
  3. axis:    no     0.000000    0.000000    7.000000    36     0.1944

  Lengths:   8.197401   7.926960   7.000000
  Angles:   90.000000  90.000000  90.000000

Effective grid spacing dv^(1/3) = 0.1991

     iter     time        total  log10-change:
                         energy  eigst   dens
iter:   1 15:26:08   -13.726826       c
iter:   2 15:26:08   -13.726826       c -4.74c
iter:   3 15:26:08   -13.726826c      c -4.90c

Converged after 3 iterations.

Dipole moment: (0.148655, -0.361807, 0.000000) |e|*Ang

Energy contributions relative to reference atoms: (reference = -2052.165985)

Kinetic:        +13.742820
Potential:      -14.053565
External:        +0.000000
XC:             -13.749553
Entropy (-ST):   +0.000000
Local:           +0.333472
--------------------------
Free energy:    -13.726826
Extrapolated:   -13.726826

 Band  Eigenvalues  Occupancy
    0    -24.38737    2.00000
    1    -12.44344    2.00000
    2     -8.65669    2.00000
    3     -6.51274    2.00000
    4      1.04176    0.00000
    5      3.26208    0.00000

Fermi level: -2.73549

Gap: 7.554 eV
Transition (v -> c):
  (s=0, k=0, n=3, [0.00, 0.00, 0.00]) -> (s=0, k=0, n=4, [0.00, 0.00, 0.00])

Forces in eV/Ang:
  0 H    -0.00015   -0.00042    0.00000
  1 H    -0.00030    0.00015    0.00000
  2 O     0.00171    0.00085    0.00000

System changes: positions 

Initializing position-dependent things.

Density initialized from wave functions
      .-------------------.  
     /|                   |  
    / |                   |  
   /  |                   |  
  /   |                   |  
 *    |                   |  
 |    |                   |  
 |    |    H O H          |  
 |    |                   |  
 |    .-------------------.  
 |   /                   /   
 |  /                   /    
 | /                   /     
 |/                   /      
 *-------------------*       

Positions:
   0 H      3.416573    3.317246    3.500000    ( 0.0000,  0.0000,  0.0000)
   1 H      4.842268    3.904262    3.500000    ( 0.0000,  0.0000,  0.0000)
   2 O      3.896100    4.177246    3.500000    ( 0.0000,  0.0000,  0.0000)

Unit cell:
           periodic     x           y           z      points  spacing
  1. axis:    no     8.197401    0.000000    0.000000    40     0.2049
  2. axis:    no     0.000000    7.926960    0.000000    40     0.1982
  3. axis:    no     0.000000    0.000000    7.000000    36     0.1944

  Lengths:   8.197401   7.926960   7.000000
  Angles:   90.000000  90.000000  90.000000

Effective grid spacing dv^(1/3) = 0.1991

     iter     time        total  log10-change:
                         energy  eigst   dens
iter:   1 15:26:08   -13.726826       c
iter:   2 15:26:08   -13.726826       c -4.81c
iter:   3 15:26:08   -13.726826c      c -4.99c

Converged after 3 iterations.

Dipole moment: (0.148716, -0.361784, 0.000000) |e|*Ang

Energy contributions relative to reference atoms: (reference = -2052.165985)

Kinetic:        +13.742186
Potential:      -14.053049
External:        +0.000000
XC:             -13.749380
Entropy (-ST):   +0.000000
Local:           +0.333416
--------------------------
Free energy:    -13.726826
Extrapolated:   -13.726826

 Band  Eigenvalues  Occupancy
    0    -24.38731    2.00000
    1    -12.44337    2.00000
    2     -8.65671    2.00000
    3     -6.51274    2.00000
    4      1.04169    0.00000
    5      3.26200    0.00000

Fermi level: -2.73552

Gap: 7.554 eV
Transition (v -> c):
  (s=0, k=0, n=3, [0.00, 0.00, 0.00]) -> (s=0, k=0, n=4, [0.00, 0.00, 0.00])

Forces in eV/Ang:
  0 H     0.00004    0.00015    0.00000
  1 H    -0.00028    0.00005    0.00000
  2 O     0.00081   -0.00045    0.00000

System changes: positions 

Initializing position-dependent things.

Density initialized from wave functions
      .-------------------.  
     /|                   |  
    / |                   |  
   /  |                   |  
  /   |                   |  
 *    |                   |  
 |    |                   |  
 |    |    H O H          |  
 |    |                   |  
 |    .-------------------.  
 |   /                   /   
 |  /                   /    
 | /                   /     
 |/                   /      
 *-------------------*       

Positions:
   0 H      3.416594    3.317245    3.500000    ( 0.0000,  0.0000,  0.0000)
   1 H      4.842276    3.904295    3.500000    ( 0.0000,  0.0000,  0.0000)
   2 O      3.896102    4.177257    3.500000    ( 0.0000,  0.0000,  0.0000)

Unit cell:
           periodic     x           y           z      points  spacing
  1. axis:    no     8.197401    0.000000    0.000000    40     0.2049
  2. axis:    no     0.000000    7.926960    0.000000    40     0.1982
  3. axis:    no     0.000000    0.000000    7.000000    36     0.1944

  Lengths:   8.197401   7.926960   7.000000
  Angles:   90.000000  90.000000  90.000000

Effective grid spacing dv^(1/3) = 0.1991

     iter     time        total  log10-change:
                         energy  eigst   dens
iter:   1 15:26:08   -13.726826       c
iter:   2 15:26:09   -13.726826       c -5.54c
iter:   3 15:26:09   -13.726826c      c -5.78c

Converged after 3 iterations.

Dipole moment: (0.148723, -0.361782, 0.000000) |e|*Ang

Energy contributions relative to reference atoms: (reference = -2052.165985)

Kinetic:        +13.742124
Potential:      -14.053027
External:        +0.000000
XC:             -13.749360
Entropy (-ST):   +0.000000
Local:           +0.333437
--------------------------
Free energy:    -13.726826
Extrapolated:   -13.726826

 Band  Eigenvalues  Occupancy
    0    -24.38730    2.00000
    1    -12.44335    2.00000
    2     -8.65671    2.00000
    3     -6.51273    2.00000
    4      1.04168    0.00000
    5      3.26199    0.00000

Fermi level: -2.73553

Gap: 7.554 eV
Transition (v -> c):
  (s=0, k=0, n=3, [0.00, 0.00, 0.00]) -> (s=0, k=0, n=4, [0.00, 0.00, 0.00])

Forces in eV/Ang:
  0 H     0.00006    0.00022    0.00000
  1 H    -0.00029    0.00006    0.00000
  2 O     0.00104   -0.00047    0.00000

System changes: positions 

Initializing position-dependent things.

Density initialized from wave functions
      .-------------------.  
     /|                   |  
    / |                   |  
   /  |                   |  
  /   |                   |  
 *    |                   |  
 |    |                   |  
 |    |    H O H          |  
 |    |                   |  
 |    .-------------------.  
 |   /                   /   
 |  /                   /    
 | /                   /     
 |/                   /      
 *-------------------*       

Positions:
   0 H      3.416596    3.317245    3.500000    ( 0.0000,  0.0000,  0.0000)
   1 H      4.842277    3.904299    3.500000    ( 0.0000,  0.0000,  0.0000)
   2 O      3.896102    4.177259    3.500000    ( 0.0000,  0.0000,  0.0000)

Unit cell:
           periodic     x           y           z      points  spacing
  1. axis:    no     8.197401    0.000000    0.000000    40     0.2049
  2. axis:    no     0.000000    7.926960    0.000000    40     0.1982
  3. axis:    no     0.000000    0.000000    7.000000    36     0.1944

  Lengths:   8.197401   7.926960   7.000000
  Angles:   90.000000  90.000000  90.000000

Effective grid spacing dv^(1/3) = 0.1991

     iter     time        total  log10-change:
                         energy  eigst   dens
iter:   1 15:26:09   -13.726826       c
iter:   2 15:26:09   -13.726826       c -6.34c
iter:   3 15:26:09   -13.726826c      c -6.74c

Converged after 3 iterations.

Dipole moment: (0.148724, -0.361782, 0.000000) |e|*Ang

Energy contributions relative to reference atoms: (reference = -2052.165985)

Kinetic:        +13.742145
Potential:      -14.053050
External:        +0.000000
XC:             -13.749362
Entropy (-ST):   +0.000000
Local:           +0.333441
--------------------------
Free energy:    -13.726826
Extrapolated:   -13.726826

 Band  Eigenvalues  Occupancy
    0    -24.38729    2.00000
    1    -12.44335    2.00000
    2     -8.65671    2.00000
    3     -6.51273    2.00000
    4      1.04168    0.00000
    5      3.26199    0.00000

Fermi level: -2.73552

Gap: 7.554 eV
Transition (v -> c):
  (s=0, k=0, n=3, [0.00, 0.00, 0.00]) -> (s=0, k=0, n=4, [0.00, 0.00, 0.00])

Forces in eV/Ang:
  0 H     0.00007    0.00023    0.00000
  1 H    -0.00029    0.00006    0.00000
  2 O     0.00100   -0.00050    0.00000

System changes: positions 

Initializing position-dependent things.

Density initialized from wave functions
      .-------------------.  
     /|                   |  
    / |                   |  
   /  |                   |  
  /   |                   |  
 *    |                   |  
 |    |                   |  
 |    |    H O H          |  
 |    |                   |  
 |    .-------------------.  
 |   /                   /   
 |  /                   /    
 | /                   /     
 |/                   /      
 *-------------------*       

Positions:
   0 H      3.416596    3.317245    3.500000    ( 0.0000,  0.0000,  0.0000)
   1 H      4.842277    3.904299    3.500000    ( 0.0000,  0.0000,  0.0000)
   2 O      3.896102    4.177259    3.500000    ( 0.0000,  0.0000,  0.0000)

Unit cell:
           periodic     x           y           z      points  spacing
  1. axis:    no     8.197401    0.000000    0.000000    40     0.2049
  2. axis:    no     0.000000    7.926960    0.000000    40     0.1982
  3. axis:    no     0.000000    0.000000    7.000000    36     0.1944

  Lengths:   8.197401   7.926960   7.000000
  Angles:   90.000000  90.000000  90.000000

Effective grid spacing dv^(1/3) = 0.1991

     iter     time        total  log10-change:
                         energy  eigst   dens
iter:   1 15:26:09   -13.726826       c
iter:   2 15:26:09   -13.726826       c -7.59c
iter:   3 15:26:09   -13.726826c      c -7.93c

Converged after 3 iterations.

Dipole moment: (0.148724, -0.361782, 0.000000) |e|*Ang

Energy contributions relative to reference atoms: (reference = -2052.165985)

Kinetic:        +13.742146
Potential:      -14.053051
External:        +0.000000
XC:             -13.749363
Entropy (-ST):   +0.000000
Local:           +0.333442
--------------------------
Free energy:    -13.726826
Extrapolated:   -13.726826

 Band  Eigenvalues  Occupancy
    0    -24.38729    2.00000
    1    -12.44335    2.00000
    2     -8.65671    2.00000
    3     -6.51273    2.00000
    4      1.04168    0.00000
    5      3.26199    0.00000

Fermi level: -2.73552

Gap: 7.554 eV
Transition (v -> c):
  (s=0, k=0, n=3, [0.00, 0.00, 0.00]) -> (s=0, k=0, n=4, [0.00, 0.00, 0.00])

Forces in eV/Ang:
  0 H     0.00007    0.00023    0.00000
  1 H    -0.00029    0.00006    0.00000
  2 O     0.00099   -0.00051    0.00000

System changes: positions 

Initializing position-dependent things.

Density initialized from wave functions
      .-------------------.  
     /|                   |  
    / |                   |  
   /  |                   |  
  /   |                   |  
 *    |                   |  
 |    |                   |  
 |    |    H O H          |  
 |    |                   |  
 |    .-------------------.  
 |   /                   /   
 |  /                   /    
 | /                   /     
 |/                   /      
 *-------------------*       

Positions:
   0 H      3.416596    3.317245    3.500000    ( 0.0000,  0.0000,  0.0000)
   1 H      4.842277    3.904299    3.500000    ( 0.0000,  0.0000,  0.0000)
   2 O      3.896102    4.177259    3.500000    ( 0.0000,  0.0000,  0.0000)

Unit cell:
           periodic     x           y           z      points  spacing
  1. axis:    no     8.197401    0.000000    0.000000    40     0.2049
  2. axis:    no     0.000000    7.926960    0.000000    40     0.1982
  3. axis:    no     0.000000    0.000000    7.000000    36     0.1944

  Lengths:   8.197401   7.926960   7.000000
  Angles:   90.000000  90.000000  90.000000

Effective grid spacing dv^(1/3) = 0.1991

     iter     time        total  log10-change:
                         energy  eigst   dens
iter:   1 15:26:09   -13.726826       c
iter:   2 15:26:09   -13.726826       c -8.56c
iter:   3 15:26:09   -13.726826c      c -8.90c

Converged after 3 iterations.

Dipole moment: (0.148724, -0.361782, 0.000000) |e|*Ang

Energy contributions relative to reference atoms: (reference = -2052.165985)

Kinetic:        +13.742146
Potential:      -14.053052
External:        +0.000000
XC:             -13.749363
Entropy (-ST):   +0.000000
Local:           +0.333442
--------------------------
Free energy:    -13.726826
Extrapolated:   -13.726826

 Band  Eigenvalues  Occupancy
    0    -24.38729    2.00000
    1    -12.44335    2.00000
    2     -8.65671    2.00000
    3     -6.51273    2.00000
    4      1.04168    0.00000
    5      3.26199    0.00000

Fermi level: -2.73552

Gap: 7.554 eV
Transition (v -> c):
  (s=0, k=0, n=3, [0.00, 0.00, 0.00]) -> (s=0, k=0, n=4, [0.00, 0.00, 0.00])

Forces in eV/Ang:
  0 H     0.00007    0.00023    0.00000
  1 H    -0.00029    0.00006    0.00000
  2 O     0.00099   -0.00051    0.00000

Timing:                                       incl.     excl.
--------------------------------------------------------------------
Basic WFS set positions:                      0.027     0.017   0.1% |
 Redistribute:                                0.010     0.010   0.1% |
Basis functions set positions:                0.076     0.076   0.5% |
Forces:                                       0.502     0.341   2.3% ||
 LCAO forces:                                 0.160     0.007   0.0% |
  Atomic Hamiltonian force:                   0.000     0.000   0.0% |
  Initial:                                    0.006     0.000   0.0% |
   Get density matrix:                        0.005     0.005   0.0% |
  Paw correction:                             0.001     0.001   0.0% |
  Potential:                                  0.053     0.053   0.4% |
  TCI derivative:                             0.093     0.093   0.6% |
  Wait for sum:                               0.000     0.000   0.0% |
LCAO WFS Initialize:                          2.255     0.003   0.0% |
 Density initialized from wave functions:     0.463     0.071   0.5% |
  Calculate density matrix:                   0.002     0.002   0.0% |
  Construct density:                          0.006     0.006   0.0% |
  Symmetrize density:                         0.384     0.384   2.6% ||
 Hamiltonian:                                 1.789     0.004   0.0% |
  Atomic:                                     0.013     0.013   0.1% |
   XC Correction:                             0.000     0.000   0.0% |
  Calculate atomic Hamiltonians:              0.011     0.011   0.1% |
  Communicate:                                0.487     0.487   3.2% ||
  Hartree integrate/restrict:                 0.038     0.038   0.3% |
  Initialize Hamiltonian:                     0.000     0.000   0.0% |
  Poisson:                                    1.022     0.014   0.1% |
   Communicate from 1D:                       0.242     0.242   1.6% ||
   Communicate from 2D:                       0.226     0.226   1.5% ||
   Communicate to 1D:                         0.209     0.209   1.4% ||
   Communicate to 2D:                         0.250     0.250   1.7% ||
   FFT 1D:                                    0.028     0.028   0.2% |
   FFT 2D:                                    0.052     0.052   0.3% |
  XC 3D grid:                                 0.207     0.207   1.4% ||
  vbar:                                       0.007     0.007   0.0% |
P tci:                                        0.013     0.013   0.1% |
Redistribute:                                 0.010     0.010   0.1% |
SCF-cycle:                                   10.320     0.118   0.8% |
 Density:                                     2.079     0.004   0.0% |
  Atomic density matrices:                    0.112     0.112   0.7% |
  Mix:                                        0.204     0.204   1.4% ||
  Multipole moments:                          0.022     0.022   0.1% |
  Normalize:                                  0.014     0.014   0.1% |
  Pseudo density:                             1.724     0.013   0.1% |
   Calculate density matrix:                  0.012     0.012   0.1% |
   Construct density:                         0.026     0.026   0.2% |
   Symmetrize density:                        1.673     1.673  11.2% |---|
 Hamiltonian:                                 7.721     0.015   0.1% |
  Atomic:                                     0.056     0.055   0.4% |
   XC Correction:                             0.001     0.001   0.0% |
  Calculate atomic Hamiltonians:              0.046     0.046   0.3% |
  Communicate:                                2.097     2.097  14.0% |-----|
  Hartree integrate/restrict:                 0.169     0.169   1.1% |
  Poisson:                                    4.403     0.061   0.4% |
   Communicate from 1D:                       1.043     1.043   7.0% |--|
   Communicate from 2D:                       0.980     0.980   6.5% |--|
   Communicate to 1D:                         0.901     0.901   6.0% |-|
   Communicate to 2D:                         1.075     1.075   7.2% |--|
   FFT 1D:                                    0.120     0.120   0.8% |
   FFT 2D:                                    0.223     0.223   1.5% ||
  XC 3D grid:                                 0.903     0.903   6.0% |-|
  vbar:                                       0.032     0.032   0.2% |
 LCAO eigensolver:                            0.402     0.017   0.1% |
  Calculate projections:                      0.003     0.003   0.0% |
  DenseAtomicCorrection:                      0.007     0.007   0.0% |
  Distribute overlap matrix:                  0.230     0.230   1.5% ||
  Orbital Layouts:                            0.100     0.100   0.7% |
  Potential matrix:                           0.044     0.044   0.3% |
ST tci:                                       0.029     0.029   0.2% |
Set symmetry:                                 0.002     0.002   0.0% |
TCI: Evaluate splines:                        0.183     0.183   1.2% |
mktci:                                        0.054     0.054   0.4% |
Other:                                        1.521     1.521  10.1% |---|
--------------------------------------------------------------------
Total:                                                 14.991 100.0%

Memory usage: 98.12 MiB
Date: Wed Mar  1 15:26:10 2023
