
  ___ ___ ___ _ _ _  
 |   |   |_  | | | | 
 | | | | | . | | | | 
 |__ |  _|___|_____|  22.8.1b1
 |___|_|             

User:   s183553@n-62-21-90
Date:   Wed Feb 22 16:40:32 2023
Arch:   x86_64
Pid:    24842
CWD:    /zhome/06/4/136859/dft_course/CX3/finding_lattice_constant
Python: 3.8.5
gpaw:   /zhome/06/4/136859/dft_venv/gpaw/gpaw (3d6f5cf366)
_gpaw:  /zhome/06/4/136859/dft_venv/gpaw/
        _gpaw.cpython-38-x86_64-linux-gnu.so (3d6f5cf366)
ase:    /zhome/06/4/136859/dft_venv/ase/ase (version 3.23.0b1-d4570ca33a)
numpy:  /zhome/06/4/136859/dft_venv/lib/python3.8/site-packages/numpy (version 1.24.1)
scipy:  /zhome/06/4/136859/dft_venv/lib/python3.8/site-packages/scipy (version 1.10.0)
libxc:  4.3.4
units:  Angstrom and eV
cores: 24
OpenMP: False
OMP_NUM_THREADS: 1

Input parameters:
  kpts: [9 9 9]

System changes: cell 

Initialize ...

species:
  Al:
    name: Aluminium
    id: 0292cae29f5d6237e50f6abdd43a7bdd
    Z: 13.0
    valence: 3
    core: 10
    charge: 0.0
    file: /zhome/86/d/1666/PAW/gpaw-setups-0.9.20000/Al.PBE.gz
    compensation charges: {type: gauss,
                           rc: 0.34,
                           lmax: 2}
    cutoffs: {filter: 1.91,
              core: 2.36}
    valence states:
      #              energy  rcut
      - 3s(2.00)    -7.753   1.085
      - 3p(1.00)    -2.712   1.085
      -  s          19.459   1.085
      -  p          24.499   1.085
      -  d           0.000   1.085
  
    # LCAO basis set for Al:
    #   Name: dzp
    #   File: /zhome/86/d/1666/PAW/gpaw-setups-0.9.20000/Al.dzp.basis.gz
    #   Number of radial functions: 5
    #   Number of spherical harmonics: 13
    #     l=0, rc=7.8750 Bohr: 3s-sz confined orbital
    #     l=1, rc=10.4219 Bohr: 3p-sz confined orbital
    #     l=0, rc=4.6094 Bohr: 3s-dz split-valence wave
    #     l=1, rc=6.2812 Bohr: 3p-dz split-valence wave
    #     l=2, rc=10.4219 Bohr: d-type Gaussian polarization
    #   Number of RI-basis functions 0

Reference energy: -6603.423265  # eV

Spin-paired calculation

Convergence criteria:
 Maximum [total energy] change in last 3 cyles: 0.0005 eV / valence electron
 Maximum integral of absolute [dens]ity change: 0.0001 electrons / valence electron
 Maximum integral of absolute [eigenst]ate change: 4e-08 eV^2 / valence electron
 Maximum number of scf [iter]ations: 333
 (Square brackets indicate name in SCF output, whereas a 'c' in
 the SCF output indicates the quantity has converged.)

Symmetries present (total): 48

  ( 1  0  0)  ( 1  0  0)  ( 1  0  0)  ( 1  0  0)  ( 1  0 -1)  ( 1  0 -1)
  ( 1  0 -1)  ( 1 -1  0)  ( 0  1  0)  ( 0  0  1)  ( 1  0  0)  ( 1 -1  0)
  ( 1 -1  0)  ( 1  0 -1)  ( 0  0  1)  ( 0  1  0)  ( 1 -1  0)  ( 1  0  0)

  ( 1  0 -1)  ( 1  0 -1)  ( 1 -1  0)  ( 1 -1  0)  ( 1 -1  0)  ( 1 -1  0)
  ( 0  1 -1)  ( 0  0 -1)  ( 1  0  0)  ( 1  0 -1)  ( 0 -1  1)  ( 0 -1  0)
  ( 0  0 -1)  ( 0  1 -1)  ( 1  0 -1)  ( 1  0  0)  ( 0 -1  0)  ( 0 -1  1)

  ( 0  1  0)  ( 0  1  0)  ( 0  1  0)  ( 0  1  0)  ( 0  1 -1)  ( 0  1 -1)
  ( 1  0  0)  ( 0  1 -1)  ( 0  0  1)  (-1  1  0)  ( 1  0 -1)  ( 0  1  0)
  ( 0  0  1)  (-1  1  0)  ( 1  0  0)  ( 0  1 -1)  ( 0  0 -1)  (-1  1  0)

  ( 0  1 -1)  ( 0  1 -1)  ( 0  0  1)  ( 0  0  1)  ( 0  0  1)  ( 0  0  1)
  ( 0  0 -1)  (-1  1  0)  ( 1  0  0)  ( 0  1  0)  ( 0 -1  1)  (-1  0  1)
  ( 1  0 -1)  ( 0  1  0)  ( 0  1  0)  ( 1  0  0)  (-1  0  1)  ( 0 -1  1)

  ( 0  0 -1)  ( 0  0 -1)  ( 0  0 -1)  ( 0  0 -1)  ( 0 -1  1)  ( 0 -1  1)
  ( 1  0 -1)  ( 0  1 -1)  ( 0 -1  0)  (-1  0  0)  ( 1 -1  0)  ( 0  0  1)
  ( 0  1 -1)  ( 1  0 -1)  (-1  0  0)  ( 0 -1  0)  ( 0 -1  0)  (-1  0  1)

  ( 0 -1  1)  ( 0 -1  1)  ( 0 -1  0)  ( 0 -1  0)  ( 0 -1  0)  ( 0 -1  0)
  ( 0 -1  0)  (-1  0  1)  ( 1 -1  0)  ( 0  0 -1)  ( 0 -1  1)  (-1  0  0)
  ( 1 -1  0)  ( 0  0  1)  ( 0 -1  1)  (-1  0  0)  ( 1 -1  0)  ( 0  0 -1)

  (-1  1  0)  (-1  1  0)  (-1  1  0)  (-1  1  0)  (-1  0  1)  (-1  0  1)
  ( 0  1  0)  ( 0  1 -1)  (-1  0  1)  (-1  0  0)  ( 0  0  1)  ( 0 -1  1)
  ( 0  1 -1)  ( 0  1  0)  (-1  0  0)  (-1  0  1)  ( 0 -1  1)  ( 0  0  1)

  (-1  0  1)  (-1  0  1)  (-1  0  0)  (-1  0  0)  (-1  0  0)  (-1  0  0)
  (-1  1  0)  (-1  0  0)  ( 0  0 -1)  ( 0 -1  0)  (-1  1  0)  (-1  0  1)
  (-1  0  0)  (-1  1  0)  ( 0 -1  0)  ( 0  0 -1)  (-1  0  1)  (-1  1  0)

729 k-points: 9 x 9 x 9 Monkhorst-Pack grid
35 k-points in the irreducible part of the Brillouin zone
       k-points in crystal coordinates                weights
   0:     0.00000000    0.00000000    0.00000000          1/729
   1:     0.11111111    0.11111111    0.00000000          6/729
   2:     0.11111111    0.11111111    0.11111111          8/729
   3:     0.22222222    0.11111111    0.11111111         12/729
   4:     0.22222222    0.22222222    0.00000000          6/729
   5:     0.22222222    0.22222222    0.11111111         24/729
   6:     0.22222222    0.22222222    0.22222222          8/729
   7:     0.33333333    0.22222222    0.11111111         24/729
   8:     0.33333333    0.22222222    0.22222222         24/729
   9:     0.33333333    0.33333333   -0.33333333         12/729
          ...
  34:     0.44444444    0.44444444    0.44444444          8/729

Wave functions: Plane wave expansion
  Cutoff energy: 400.000 eV
  Number of coefficients (min, max): 268, 290
  Pulay-stress correction: 0.000000 eV/Ang^3 (de/decut=0.000000)
  Using FFTW library
  ScaLapack parameters: grid=1x1, blocksize=None
  Wavefunction extrapolation:
    Improved wavefunction reuse through dual PAW basis 

Occupation numbers: Fermi-Dirac:
  width: 0.1000  # eV
 

Eigensolver
   Davidson(niter=2) 

Densities:
  Coarse grid: 14*14*14 grid
  Fine grid: 28*28*28 grid
  Total Charge: 0.000000 

Density mixing:
  Method: separate
  Backend: pulay
  Linear mixing parameter: 0.05
  old densities: 5
  Damping of long wavelength oscillations: 50 

Hamiltonian:
  XC and Coulomb potentials evaluated on a 28*28*28 grid
  Using the PBE Exchange-Correlation functional
  External potential:
    NoExternalPotential
 

XC parameters: PBE with 2 nearest neighbor stencil

Memory estimate:
  Process memory now: 129.75 MiB
  Calculator: 0.89 MiB
    Density: 0.52 MiB
      Arrays: 0.27 MiB
      Localized functions: 0.15 MiB
      Mixer: 0.10 MiB
    Hamiltonian: 0.18 MiB
      Arrays: 0.18 MiB
      XC: 0.00 MiB
      Poisson: 0.00 MiB
      vbar: 0.00 MiB
    Wavefunctions: 0.18 MiB
      Arrays psit_nG: 0.02 MiB
      Eigensolver: 0.02 MiB
      Projections: 0.00 MiB
      Projectors: 0.03 MiB
      PW-descriptor: 0.11 MiB

Total number of cores used: 24
Parallelization over k-points: 12
Domain decomposition: 2 x 1 x 1

Number of atoms: 1
Number of atomic orbitals: 13
Number of bands in calculation: 4
Number of valence electrons: 3
Bands to converge: occupied

... initialized

Initializing position-dependent things.

Density initialized from atomic densities
Creating initial wave functions:
  4 bands from LCAO basis set

                
                
                
       Al       
                
                
                
                

Positions:
   0 Al     0.000000    0.000000    0.000000    ( 0.0000,  0.0000,  0.0000)

Unit cell:
           periodic     x           y           z      points  spacing
  1. axis:    yes    0.000000    1.967756    1.967756    14     0.1623
  2. axis:    yes    1.967756    0.000000    1.967756    14     0.1623
  3. axis:    yes    1.967756    1.967756    0.000000    14     0.1623

  Lengths:   2.782827   2.782827   2.782827
  Angles:   60.000000  60.000000  60.000000

Effective grid spacing dv^(1/3) = 0.1771

     iter     time        total  log10-change:
                         energy  eigst   dens
iter:   1 16:40:33    -3.669235
iter:   2 16:40:33    -3.669941  -3.82  -0.94
iter:   3 16:40:33    -3.677185  -2.94  -0.96
iter:   4 16:40:33    -3.677257  -4.52  -2.46
iter:   5 16:40:33    -3.676945c -4.55  -2.43
iter:   6 16:40:33    -3.677259c -4.34  -1.95
iter:   7 16:40:33    -3.677260c -6.09  -3.33
iter:   8 16:40:33    -3.677259c -7.46c -3.74
iter:   9 16:40:33    -3.677261c -6.96  -3.26
iter:  10 16:40:34    -3.677261c -9.04c -4.65c

Converged after 10 iterations.

Dipole moment: (0.000000, 0.000000, -0.000000) |e|*Ang

Energy contributions relative to reference atoms: (reference = -6603.423265)

Kinetic:         +6.668082
Potential:       -3.969746
External:        +0.000000
XC:              -6.357939
Entropy (-ST):   -0.018381
Local:           -0.008466
--------------------------
Free energy:     -3.686451
Extrapolated:    -3.677261

Showing only first 2 kpts
 Kpt  Band  Eigenvalues  Occupancy
  0     0     -3.75382    2.00000
  0     1     21.02791    0.00000
  0     2     21.02791    0.00000

  1     0     -3.28261    2.00000
  1     1     18.72698    0.00000
  1     2     18.72698    0.00000


Fermi level: 7.93519

No gap
System changes: cell 

Initialize ...

species:
  Al:
    name: Aluminium
    id: 0292cae29f5d6237e50f6abdd43a7bdd
    Z: 13.0
    valence: 3
    core: 10
    charge: 0.0
    file: /zhome/86/d/1666/PAW/gpaw-setups-0.9.20000/Al.PBE.gz
    compensation charges: {type: gauss,
                           rc: 0.34,
                           lmax: 2}
    cutoffs: {filter: 1.91,
              core: 2.36}
    valence states:
      #              energy  rcut
      - 3s(2.00)    -7.753   1.085
      - 3p(1.00)    -2.712   1.085
      -  s          19.459   1.085
      -  p          24.499   1.085
      -  d           0.000   1.085
  
    # LCAO basis set for Al:
    #   Name: dzp
    #   File: /zhome/86/d/1666/PAW/gpaw-setups-0.9.20000/Al.dzp.basis.gz
    #   Number of radial functions: 5
    #   Number of spherical harmonics: 13
    #     l=0, rc=7.8750 Bohr: 3s-sz confined orbital
    #     l=1, rc=10.4219 Bohr: 3p-sz confined orbital
    #     l=0, rc=4.6094 Bohr: 3s-dz split-valence wave
    #     l=1, rc=6.2812 Bohr: 3p-dz split-valence wave
    #     l=2, rc=10.4219 Bohr: d-type Gaussian polarization
    #   Number of RI-basis functions 0

Reference energy: -6603.423265  # eV

Spin-paired calculation

Convergence criteria:
 Maximum [total energy] change in last 3 cyles: 0.0005 eV / valence electron
 Maximum integral of absolute [dens]ity change: 0.0001 electrons / valence electron
 Maximum integral of absolute [eigenst]ate change: 4e-08 eV^2 / valence electron
 Maximum number of scf [iter]ations: 333
 (Square brackets indicate name in SCF output, whereas a 'c' in
 the SCF output indicates the quantity has converged.)

Symmetries present (total): 48

  ( 1  0  0)  ( 1  0  0)  ( 1  0  0)  ( 1  0  0)  ( 1  0 -1)  ( 1  0 -1)
  ( 1  0 -1)  ( 1 -1  0)  ( 0  1  0)  ( 0  0  1)  ( 1  0  0)  ( 1 -1  0)
  ( 1 -1  0)  ( 1  0 -1)  ( 0  0  1)  ( 0  1  0)  ( 1 -1  0)  ( 1  0  0)

  ( 1  0 -1)  ( 1  0 -1)  ( 1 -1  0)  ( 1 -1  0)  ( 1 -1  0)  ( 1 -1  0)
  ( 0  1 -1)  ( 0  0 -1)  ( 1  0  0)  ( 1  0 -1)  ( 0 -1  1)  ( 0 -1  0)
  ( 0  0 -1)  ( 0  1 -1)  ( 1  0 -1)  ( 1  0  0)  ( 0 -1  0)  ( 0 -1  1)

  ( 0  1  0)  ( 0  1  0)  ( 0  1  0)  ( 0  1  0)  ( 0  1 -1)  ( 0  1 -1)
  ( 1  0  0)  ( 0  1 -1)  ( 0  0  1)  (-1  1  0)  ( 1  0 -1)  ( 0  1  0)
  ( 0  0  1)  (-1  1  0)  ( 1  0  0)  ( 0  1 -1)  ( 0  0 -1)  (-1  1  0)

  ( 0  1 -1)  ( 0  1 -1)  ( 0  0  1)  ( 0  0  1)  ( 0  0  1)  ( 0  0  1)
  ( 0  0 -1)  (-1  1  0)  ( 1  0  0)  ( 0  1  0)  ( 0 -1  1)  (-1  0  1)
  ( 1  0 -1)  ( 0  1  0)  ( 0  1  0)  ( 1  0  0)  (-1  0  1)  ( 0 -1  1)

  ( 0  0 -1)  ( 0  0 -1)  ( 0  0 -1)  ( 0  0 -1)  ( 0 -1  1)  ( 0 -1  1)
  ( 1  0 -1)  ( 0  1 -1)  ( 0 -1  0)  (-1  0  0)  ( 1 -1  0)  ( 0  0  1)
  ( 0  1 -1)  ( 1  0 -1)  (-1  0  0)  ( 0 -1  0)  ( 0 -1  0)  (-1  0  1)

  ( 0 -1  1)  ( 0 -1  1)  ( 0 -1  0)  ( 0 -1  0)  ( 0 -1  0)  ( 0 -1  0)
  ( 0 -1  0)  (-1  0  1)  ( 1 -1  0)  ( 0  0 -1)  ( 0 -1  1)  (-1  0  0)
  ( 1 -1  0)  ( 0  0  1)  ( 0 -1  1)  (-1  0  0)  ( 1 -1  0)  ( 0  0 -1)

  (-1  1  0)  (-1  1  0)  (-1  1  0)  (-1  1  0)  (-1  0  1)  (-1  0  1)
  ( 0  1  0)  ( 0  1 -1)  (-1  0  1)  (-1  0  0)  ( 0  0  1)  ( 0 -1  1)
  ( 0  1 -1)  ( 0  1  0)  (-1  0  0)  (-1  0  1)  ( 0 -1  1)  ( 0  0  1)

  (-1  0  1)  (-1  0  1)  (-1  0  0)  (-1  0  0)  (-1  0  0)  (-1  0  0)
  (-1  1  0)  (-1  0  0)  ( 0  0 -1)  ( 0 -1  0)  (-1  1  0)  (-1  0  1)
  (-1  0  0)  (-1  1  0)  ( 0 -1  0)  ( 0  0 -1)  (-1  0  1)  (-1  1  0)

729 k-points: 9 x 9 x 9 Monkhorst-Pack grid
35 k-points in the irreducible part of the Brillouin zone
       k-points in crystal coordinates                weights
   0:     0.00000000    0.00000000    0.00000000          1/729
   1:     0.11111111    0.11111111    0.00000000          6/729
   2:     0.11111111    0.11111111    0.11111111          8/729
   3:     0.22222222    0.11111111    0.11111111         12/729
   4:     0.22222222    0.22222222    0.00000000          6/729
   5:     0.22222222    0.22222222    0.11111111         24/729
   6:     0.22222222    0.22222222    0.22222222          8/729
   7:     0.33333333    0.22222222    0.11111111         24/729
   8:     0.33333333    0.22222222    0.22222222         24/729
   9:     0.33333333    0.33333333   -0.33333333         12/729
          ...
  34:     0.44444444    0.44444444    0.44444444          8/729

Wave functions: Plane wave expansion
  Cutoff energy: 400.000 eV
  Number of coefficients (min, max): 261, 283
  Pulay-stress correction: 0.000000 eV/Ang^3 (de/decut=0.000000)
  Using FFTW library
  ScaLapack parameters: grid=1x1, blocksize=None
  Wavefunction extrapolation:
    Improved wavefunction reuse through dual PAW basis 

Occupation numbers: Fermi-Dirac:
  width: 0.1000  # eV
 

Eigensolver
   Davidson(niter=2) 

Densities:
  Coarse grid: 14*14*14 grid
  Fine grid: 28*28*28 grid
  Total Charge: 0.000000 

Density mixing:
  Method: separate
  Backend: pulay
  Linear mixing parameter: 0.05
  old densities: 5
  Damping of long wavelength oscillations: 50 

Hamiltonian:
  XC and Coulomb potentials evaluated on a 28*28*28 grid
  Using the PBE Exchange-Correlation functional
  External potential:
    NoExternalPotential
 

XC parameters: PBE with 2 nearest neighbor stencil

Memory estimate:
  Process memory now: 131.16 MiB
  Calculator: 0.88 MiB
    Density: 0.52 MiB
      Arrays: 0.27 MiB
      Localized functions: 0.14 MiB
      Mixer: 0.10 MiB
    Hamiltonian: 0.18 MiB
      Arrays: 0.18 MiB
      XC: 0.00 MiB
      Poisson: 0.00 MiB
      vbar: 0.00 MiB
    Wavefunctions: 0.18 MiB
      Arrays psit_nG: 0.02 MiB
      Eigensolver: 0.02 MiB
      Projections: 0.00 MiB
      Projectors: 0.03 MiB
      PW-descriptor: 0.11 MiB

Total number of cores used: 24
Parallelization over k-points: 12
Domain decomposition: 2 x 1 x 1

Number of atoms: 1
Number of atomic orbitals: 13
Number of bands in calculation: 4
Number of valence electrons: 3
Bands to converge: occupied

... initialized

Initializing position-dependent things.

Density initialized from atomic densities
Creating initial wave functions:
  4 bands from LCAO basis set

                
                
                
       Al       
                
                
                
                

Positions:
   0 Al     0.000000    0.000000    0.000000    ( 0.0000,  0.0000,  0.0000)

Unit cell:
           periodic     x           y           z      points  spacing
  1. axis:    yes    0.000000    1.948078    1.948078    14     0.1607
  2. axis:    yes    1.948078    0.000000    1.948078    14     0.1607
  3. axis:    yes    1.948078    1.948078    0.000000    14     0.1607

  Lengths:   2.754999   2.754999   2.754999
  Angles:   60.000000  60.000000  60.000000

Effective grid spacing dv^(1/3) = 0.1753

     iter     time        total  log10-change:
                         energy  eigst   dens
iter:   1 16:40:35    -3.639625
iter:   2 16:40:35    -3.640566  -3.85  -0.94
iter:   3 16:40:35    -3.650346  -2.88  -0.96
iter:   4 16:40:35    -3.650438  -4.53  -2.44
iter:   5 16:40:35    -3.649509c -4.07  -2.40
iter:   6 16:40:35    -3.650433c -3.99  -1.71
iter:   7 16:40:35    -3.650433c -6.00  -3.71
iter:   8 16:40:35    -3.650433c -7.92c -3.71
iter:   9 16:40:35    -3.650434c -7.42c -3.57
iter:  10 16:40:35    -3.650434c -9.21c -4.59c

Converged after 10 iterations.

Dipole moment: (-0.000000, 0.000000, -0.000000) |e|*Ang

Energy contributions relative to reference atoms: (reference = -6603.423265)

Kinetic:         +7.914103
Potential:       -4.902955
External:        +0.000000
XC:              -6.642940
Entropy (-ST):   -0.018232
Local:           -0.009525
--------------------------
Free energy:     -3.659550
Extrapolated:    -3.650434

Showing only first 2 kpts
 Kpt  Band  Eigenvalues  Occupancy
  0     0     -3.66274    2.00000
  0     1     21.51561    0.00000
  0     2     21.51561    0.00000

  1     0     -3.18209    2.00000
  1     1     19.21463    0.00000
  1     2     19.24666    0.00000


Fermi level: 8.25282

No gap
System changes: cell 

Initialize ...

species:
  Al:
    name: Aluminium
    id: 0292cae29f5d6237e50f6abdd43a7bdd
    Z: 13.0
    valence: 3
    core: 10
    charge: 0.0
    file: /zhome/86/d/1666/PAW/gpaw-setups-0.9.20000/Al.PBE.gz
    compensation charges: {type: gauss,
                           rc: 0.34,
                           lmax: 2}
    cutoffs: {filter: 1.91,
              core: 2.36}
    valence states:
      #              energy  rcut
      - 3s(2.00)    -7.753   1.085
      - 3p(1.00)    -2.712   1.085
      -  s          19.459   1.085
      -  p          24.499   1.085
      -  d           0.000   1.085
  
    # LCAO basis set for Al:
    #   Name: dzp
    #   File: /zhome/86/d/1666/PAW/gpaw-setups-0.9.20000/Al.dzp.basis.gz
    #   Number of radial functions: 5
    #   Number of spherical harmonics: 13
    #     l=0, rc=7.8750 Bohr: 3s-sz confined orbital
    #     l=1, rc=10.4219 Bohr: 3p-sz confined orbital
    #     l=0, rc=4.6094 Bohr: 3s-dz split-valence wave
    #     l=1, rc=6.2812 Bohr: 3p-dz split-valence wave
    #     l=2, rc=10.4219 Bohr: d-type Gaussian polarization
    #   Number of RI-basis functions 0

Reference energy: -6603.423265  # eV

Spin-paired calculation

Convergence criteria:
 Maximum [total energy] change in last 3 cyles: 0.0005 eV / valence electron
 Maximum integral of absolute [dens]ity change: 0.0001 electrons / valence electron
 Maximum integral of absolute [eigenst]ate change: 4e-08 eV^2 / valence electron
 Maximum number of scf [iter]ations: 333
 (Square brackets indicate name in SCF output, whereas a 'c' in
 the SCF output indicates the quantity has converged.)

Symmetries present (total): 48

  ( 1  0  0)  ( 1  0  0)  ( 1  0  0)  ( 1  0  0)  ( 1  0 -1)  ( 1  0 -1)
  ( 1  0 -1)  ( 1 -1  0)  ( 0  1  0)  ( 0  0  1)  ( 1  0  0)  ( 1 -1  0)
  ( 1 -1  0)  ( 1  0 -1)  ( 0  0  1)  ( 0  1  0)  ( 1 -1  0)  ( 1  0  0)

  ( 1  0 -1)  ( 1  0 -1)  ( 1 -1  0)  ( 1 -1  0)  ( 1 -1  0)  ( 1 -1  0)
  ( 0  1 -1)  ( 0  0 -1)  ( 1  0  0)  ( 1  0 -1)  ( 0 -1  1)  ( 0 -1  0)
  ( 0  0 -1)  ( 0  1 -1)  ( 1  0 -1)  ( 1  0  0)  ( 0 -1  0)  ( 0 -1  1)

  ( 0  1  0)  ( 0  1  0)  ( 0  1  0)  ( 0  1  0)  ( 0  1 -1)  ( 0  1 -1)
  ( 1  0  0)  ( 0  1 -1)  ( 0  0  1)  (-1  1  0)  ( 1  0 -1)  ( 0  1  0)
  ( 0  0  1)  (-1  1  0)  ( 1  0  0)  ( 0  1 -1)  ( 0  0 -1)  (-1  1  0)

  ( 0  1 -1)  ( 0  1 -1)  ( 0  0  1)  ( 0  0  1)  ( 0  0  1)  ( 0  0  1)
  ( 0  0 -1)  (-1  1  0)  ( 1  0  0)  ( 0  1  0)  ( 0 -1  1)  (-1  0  1)
  ( 1  0 -1)  ( 0  1  0)  ( 0  1  0)  ( 1  0  0)  (-1  0  1)  ( 0 -1  1)

  ( 0  0 -1)  ( 0  0 -1)  ( 0  0 -1)  ( 0  0 -1)  ( 0 -1  1)  ( 0 -1  1)
  ( 1  0 -1)  ( 0  1 -1)  ( 0 -1  0)  (-1  0  0)  ( 1 -1  0)  ( 0  0  1)
  ( 0  1 -1)  ( 1  0 -1)  (-1  0  0)  ( 0 -1  0)  ( 0 -1  0)  (-1  0  1)

  ( 0 -1  1)  ( 0 -1  1)  ( 0 -1  0)  ( 0 -1  0)  ( 0 -1  0)  ( 0 -1  0)
  ( 0 -1  0)  (-1  0  1)  ( 1 -1  0)  ( 0  0 -1)  ( 0 -1  1)  (-1  0  0)
  ( 1 -1  0)  ( 0  0  1)  ( 0 -1  1)  (-1  0  0)  ( 1 -1  0)  ( 0  0 -1)

  (-1  1  0)  (-1  1  0)  (-1  1  0)  (-1  1  0)  (-1  0  1)  (-1  0  1)
  ( 0  1  0)  ( 0  1 -1)  (-1  0  1)  (-1  0  0)  ( 0  0  1)  ( 0 -1  1)
  ( 0  1 -1)  ( 0  1  0)  (-1  0  0)  (-1  0  1)  ( 0 -1  1)  ( 0  0  1)

  (-1  0  1)  (-1  0  1)  (-1  0  0)  (-1  0  0)  (-1  0  0)  (-1  0  0)
  (-1  1  0)  (-1  0  0)  ( 0  0 -1)  ( 0 -1  0)  (-1  1  0)  (-1  0  1)
  (-1  0  0)  (-1  1  0)  ( 0 -1  0)  ( 0  0 -1)  (-1  0  1)  (-1  1  0)

729 k-points: 9 x 9 x 9 Monkhorst-Pack grid
35 k-points in the irreducible part of the Brillouin zone
       k-points in crystal coordinates                weights
   0:     0.00000000    0.00000000    0.00000000          1/729
   1:     0.11111111    0.11111111    0.00000000          6/729
   2:     0.11111111    0.11111111    0.11111111          8/729
   3:     0.22222222    0.11111111    0.11111111         12/729
   4:     0.22222222    0.22222222    0.00000000          6/729
   5:     0.22222222    0.22222222    0.11111111         24/729
   6:     0.22222222    0.22222222    0.22222222          8/729
   7:     0.33333333    0.22222222    0.11111111         24/729
   8:     0.33333333    0.22222222    0.22222222         24/729
   9:     0.33333333    0.33333333   -0.33333333         12/729
          ...
  34:     0.44444444    0.44444444    0.44444444          8/729

Wave functions: Plane wave expansion
  Cutoff energy: 400.000 eV
  Number of coefficients (min, max): 268, 290
  Pulay-stress correction: 0.000000 eV/Ang^3 (de/decut=0.000000)
  Using FFTW library
  ScaLapack parameters: grid=1x1, blocksize=None
  Wavefunction extrapolation:
    Improved wavefunction reuse through dual PAW basis 

Occupation numbers: Fermi-Dirac:
  width: 0.1000  # eV
 

Eigensolver
   Davidson(niter=2) 

Densities:
  Coarse grid: 14*14*14 grid
  Fine grid: 28*28*28 grid
  Total Charge: 0.000000 

Density mixing:
  Method: separate
  Backend: pulay
  Linear mixing parameter: 0.05
  old densities: 5
  Damping of long wavelength oscillations: 50 

Hamiltonian:
  XC and Coulomb potentials evaluated on a 28*28*28 grid
  Using the PBE Exchange-Correlation functional
  External potential:
    NoExternalPotential
 

XC parameters: PBE with 2 nearest neighbor stencil

Memory estimate:
  Process memory now: 132.38 MiB
  Calculator: 0.89 MiB
    Density: 0.52 MiB
      Arrays: 0.27 MiB
      Localized functions: 0.15 MiB
      Mixer: 0.10 MiB
    Hamiltonian: 0.18 MiB
      Arrays: 0.18 MiB
      XC: 0.00 MiB
      Poisson: 0.00 MiB
      vbar: 0.00 MiB
    Wavefunctions: 0.18 MiB
      Arrays psit_nG: 0.02 MiB
      Eigensolver: 0.02 MiB
      Projections: 0.00 MiB
      Projectors: 0.03 MiB
      PW-descriptor: 0.11 MiB

Total number of cores used: 24
Parallelization over k-points: 12
Domain decomposition: 2 x 1 x 1

Number of atoms: 1
Number of atomic orbitals: 13
Number of bands in calculation: 4
Number of valence electrons: 3
Bands to converge: occupied

... initialized

Initializing position-dependent things.

Density initialized from atomic densities
Creating initial wave functions:
  4 bands from LCAO basis set

                
                
                
       Al       
                
                
                
                

Positions:
   0 Al     0.000000    0.000000    0.000000    ( 0.0000,  0.0000,  0.0000)

Unit cell:
           periodic     x           y           z      points  spacing
  1. axis:    yes    0.000000    1.967559    1.967559    14     0.1623
  2. axis:    yes    1.967559    0.000000    1.967559    14     0.1623
  3. axis:    yes    1.967559    1.967559    0.000000    14     0.1623

  Lengths:   2.782549   2.782549   2.782549
  Angles:   60.000000  60.000000  60.000000

Effective grid spacing dv^(1/3) = 0.1771

     iter     time        total  log10-change:
                         energy  eigst   dens
iter:   1 16:40:36    -3.668984
iter:   2 16:40:36    -3.669691  -3.82  -0.94
iter:   3 16:40:37    -3.676961  -2.94  -0.96
iter:   4 16:40:37    -3.677032  -4.52  -2.46
iter:   5 16:40:37    -3.676718c -4.55  -2.43
iter:   6 16:40:37    -3.677035c -4.34  -1.95
iter:   7 16:40:37    -3.677036c -6.09  -3.33
iter:   8 16:40:37    -3.677034c -7.45c -3.74
iter:   9 16:40:37    -3.677036c -6.95  -3.26
iter:  10 16:40:37    -3.677036c -9.01c -4.65c

Converged after 10 iterations.

Dipole moment: (-0.000000, 0.000000, -0.000000) |e|*Ang

Energy contributions relative to reference atoms: (reference = -6603.423265)

Kinetic:         +6.680030
Potential:       -3.978669
External:        +0.000000
XC:              -6.360730
Entropy (-ST):   -0.018381
Local:           -0.008476
--------------------------
Free energy:     -3.686227
Extrapolated:    -3.677036

Showing only first 2 kpts
 Kpt  Band  Eigenvalues  Occupancy
  0     0     -3.75293    2.00000
  0     1     21.03271    0.00000
  0     2     21.03271    0.00000

  1     0     -3.28163    2.00000
  1     1     18.73210    0.00000
  1     2     18.73210    0.00000


Fermi level: 7.93832

No gap
System changes: cell 

Initialize ...

species:
  Al:
    name: Aluminium
    id: 0292cae29f5d6237e50f6abdd43a7bdd
    Z: 13.0
    valence: 3
    core: 10
    charge: 0.0
    file: /zhome/86/d/1666/PAW/gpaw-setups-0.9.20000/Al.PBE.gz
    compensation charges: {type: gauss,
                           rc: 0.34,
                           lmax: 2}
    cutoffs: {filter: 1.91,
              core: 2.36}
    valence states:
      #              energy  rcut
      - 3s(2.00)    -7.753   1.085
      - 3p(1.00)    -2.712   1.085
      -  s          19.459   1.085
      -  p          24.499   1.085
      -  d           0.000   1.085
  
    # LCAO basis set for Al:
    #   Name: dzp
    #   File: /zhome/86/d/1666/PAW/gpaw-setups-0.9.20000/Al.dzp.basis.gz
    #   Number of radial functions: 5
    #   Number of spherical harmonics: 13
    #     l=0, rc=7.8750 Bohr: 3s-sz confined orbital
    #     l=1, rc=10.4219 Bohr: 3p-sz confined orbital
    #     l=0, rc=4.6094 Bohr: 3s-dz split-valence wave
    #     l=1, rc=6.2812 Bohr: 3p-dz split-valence wave
    #     l=2, rc=10.4219 Bohr: d-type Gaussian polarization
    #   Number of RI-basis functions 0

Reference energy: -6603.423265  # eV

Spin-paired calculation

Convergence criteria:
 Maximum [total energy] change in last 3 cyles: 0.0005 eV / valence electron
 Maximum integral of absolute [dens]ity change: 0.0001 electrons / valence electron
 Maximum integral of absolute [eigenst]ate change: 4e-08 eV^2 / valence electron
 Maximum number of scf [iter]ations: 333
 (Square brackets indicate name in SCF output, whereas a 'c' in
 the SCF output indicates the quantity has converged.)

Symmetries present (total): 48

  ( 1  0  0)  ( 1  0  0)  ( 1  0  0)  ( 1  0  0)  ( 1  0 -1)  ( 1  0 -1)
  ( 1  0 -1)  ( 1 -1  0)  ( 0  1  0)  ( 0  0  1)  ( 1  0  0)  ( 1 -1  0)
  ( 1 -1  0)  ( 1  0 -1)  ( 0  0  1)  ( 0  1  0)  ( 1 -1  0)  ( 1  0  0)

  ( 1  0 -1)  ( 1  0 -1)  ( 1 -1  0)  ( 1 -1  0)  ( 1 -1  0)  ( 1 -1  0)
  ( 0  1 -1)  ( 0  0 -1)  ( 1  0  0)  ( 1  0 -1)  ( 0 -1  1)  ( 0 -1  0)
  ( 0  0 -1)  ( 0  1 -1)  ( 1  0 -1)  ( 1  0  0)  ( 0 -1  0)  ( 0 -1  1)

  ( 0  1  0)  ( 0  1  0)  ( 0  1  0)  ( 0  1  0)  ( 0  1 -1)  ( 0  1 -1)
  ( 1  0  0)  ( 0  1 -1)  ( 0  0  1)  (-1  1  0)  ( 1  0 -1)  ( 0  1  0)
  ( 0  0  1)  (-1  1  0)  ( 1  0  0)  ( 0  1 -1)  ( 0  0 -1)  (-1  1  0)

  ( 0  1 -1)  ( 0  1 -1)  ( 0  0  1)  ( 0  0  1)  ( 0  0  1)  ( 0  0  1)
  ( 0  0 -1)  (-1  1  0)  ( 1  0  0)  ( 0  1  0)  ( 0 -1  1)  (-1  0  1)
  ( 1  0 -1)  ( 0  1  0)  ( 0  1  0)  ( 1  0  0)  (-1  0  1)  ( 0 -1  1)

  ( 0  0 -1)  ( 0  0 -1)  ( 0  0 -1)  ( 0  0 -1)  ( 0 -1  1)  ( 0 -1  1)
  ( 1  0 -1)  ( 0  1 -1)  ( 0 -1  0)  (-1  0  0)  ( 1 -1  0)  ( 0  0  1)
  ( 0  1 -1)  ( 1  0 -1)  (-1  0  0)  ( 0 -1  0)  ( 0 -1  0)  (-1  0  1)

  ( 0 -1  1)  ( 0 -1  1)  ( 0 -1  0)  ( 0 -1  0)  ( 0 -1  0)  ( 0 -1  0)
  ( 0 -1  0)  (-1  0  1)  ( 1 -1  0)  ( 0  0 -1)  ( 0 -1  1)  (-1  0  0)
  ( 1 -1  0)  ( 0  0  1)  ( 0 -1  1)  (-1  0  0)  ( 1 -1  0)  ( 0  0 -1)

  (-1  1  0)  (-1  1  0)  (-1  1  0)  (-1  1  0)  (-1  0  1)  (-1  0  1)
  ( 0  1  0)  ( 0  1 -1)  (-1  0  1)  (-1  0  0)  ( 0  0  1)  ( 0 -1  1)
  ( 0  1 -1)  ( 0  1  0)  (-1  0  0)  (-1  0  1)  ( 0 -1  1)  ( 0  0  1)

  (-1  0  1)  (-1  0  1)  (-1  0  0)  (-1  0  0)  (-1  0  0)  (-1  0  0)
  (-1  1  0)  (-1  0  0)  ( 0  0 -1)  ( 0 -1  0)  (-1  1  0)  (-1  0  1)
  (-1  0  0)  (-1  1  0)  ( 0 -1  0)  ( 0  0 -1)  (-1  0  1)  (-1  1  0)

729 k-points: 9 x 9 x 9 Monkhorst-Pack grid
35 k-points in the irreducible part of the Brillouin zone
       k-points in crystal coordinates                weights
   0:     0.00000000    0.00000000    0.00000000          1/729
   1:     0.11111111    0.11111111    0.00000000          6/729
   2:     0.11111111    0.11111111    0.11111111          8/729
   3:     0.22222222    0.11111111    0.11111111         12/729
   4:     0.22222222    0.22222222    0.00000000          6/729
   5:     0.22222222    0.22222222    0.11111111         24/729
   6:     0.22222222    0.22222222    0.22222222          8/729
   7:     0.33333333    0.22222222    0.11111111         24/729
   8:     0.33333333    0.22222222    0.22222222         24/729
   9:     0.33333333    0.33333333   -0.33333333         12/729
          ...
  34:     0.44444444    0.44444444    0.44444444          8/729

Wave functions: Plane wave expansion
  Cutoff energy: 400.000 eV
  Number of coefficients (min, max): 283, 304
  Pulay-stress correction: 0.000000 eV/Ang^3 (de/decut=0.000000)
  Using FFTW library
  ScaLapack parameters: grid=1x1, blocksize=None
  Wavefunction extrapolation:
    Improved wavefunction reuse through dual PAW basis 

Occupation numbers: Fermi-Dirac:
  width: 0.1000  # eV
 

Eigensolver
   Davidson(niter=2) 

Densities:
  Coarse grid: 14*14*14 grid
  Fine grid: 28*28*28 grid
  Total Charge: 0.000000 

Density mixing:
  Method: separate
  Backend: pulay
  Linear mixing parameter: 0.05
  old densities: 5
  Damping of long wavelength oscillations: 50 

Hamiltonian:
  XC and Coulomb potentials evaluated on a 28*28*28 grid
  Using the PBE Exchange-Correlation functional
  External potential:
    NoExternalPotential
 

XC parameters: PBE with 2 nearest neighbor stencil

Memory estimate:
  Process memory now: 132.38 MiB
  Calculator: 0.90 MiB
    Density: 0.53 MiB
      Arrays: 0.27 MiB
      Localized functions: 0.15 MiB
      Mixer: 0.10 MiB
    Hamiltonian: 0.18 MiB
      Arrays: 0.18 MiB
      XC: 0.00 MiB
      Poisson: 0.00 MiB
      vbar: 0.00 MiB
    Wavefunctions: 0.19 MiB
      Arrays psit_nG: 0.02 MiB
      Eigensolver: 0.02 MiB
      Projections: 0.00 MiB
      Projectors: 0.03 MiB
      PW-descriptor: 0.11 MiB

Total number of cores used: 24
Parallelization over k-points: 12
Domain decomposition: 2 x 1 x 1

Number of atoms: 1
Number of atomic orbitals: 13
Number of bands in calculation: 4
Number of valence electrons: 3
Bands to converge: occupied

... initialized

Initializing position-dependent things.

Density initialized from atomic densities
Creating initial wave functions:
  4 bands from LCAO basis set

                
                
                
       Al       
                
                
                
                

Positions:
   0 Al     0.000000    0.000000    0.000000    ( 0.0000,  0.0000,  0.0000)

Unit cell:
           periodic     x           y           z      points  spacing
  1. axis:    yes    0.000000    2.006910    2.006910    14     0.1655
  2. axis:    yes    2.006910    0.000000    2.006910    14     0.1655
  3. axis:    yes    2.006910    2.006910    0.000000    14     0.1655

  Lengths:   2.838200   2.838200   2.838200
  Angles:   60.000000  60.000000  60.000000

Effective grid spacing dv^(1/3) = 0.1806

     iter     time        total  log10-change:
                         energy  eigst   dens
iter:   1 16:40:38    -3.702088
iter:   2 16:40:38    -3.702359  -3.78  -0.93
iter:   3 16:40:38    -3.705066  -3.07  -0.95
iter:   4 16:40:38    -3.705086  -4.62  -2.48
iter:   5 16:40:38    -3.705057c -6.20  -2.50
iter:   6 16:40:38    -3.705104c -4.88  -2.32
iter:   7 16:40:38    -3.705105c -6.23  -3.21
iter:   8 16:40:39    -3.705105c -7.67c -3.74
iter:   9 16:40:39    -3.705105c -8.42c -4.23c

Converged after 9 iterations.

Dipole moment: (-0.000000, -0.000000, -0.000000) |e|*Ang

Energy contributions relative to reference atoms: (reference = -6603.423265)

Kinetic:         +4.448159
Potential:       -2.314734
External:        +0.000000
XC:              -5.822755
Entropy (-ST):   -0.018064
Local:           -0.006743
--------------------------
Free energy:     -3.714137
Extrapolated:    -3.705105

Showing only first 2 kpts
 Kpt  Band  Eigenvalues  Occupancy
  0     0     -3.92239    2.00000
  0     1     20.09993    0.00000
  0     2     20.09993    0.00000

  1     0     -3.46920    2.00000
  1     1     17.73406    0.00000
  1     2     17.73406    0.00000


Fermi level: 7.33475

No gap
