
  ___ ___ ___ _ _ _  
 |   |   |_  | | | | 
 | | | | | . | | | | 
 |__ |  _|___|_____|  22.8.1b1
 |___|_|             

User:   s183553@n-62-21-90
Date:   Wed Feb 22 16:39:17 2023
Arch:   x86_64
Pid:    24842
CWD:    /zhome/06/4/136859/dft_course/CX3/finding_lattice_constant
Python: 3.8.5
gpaw:   /zhome/06/4/136859/dft_venv/gpaw/gpaw (3d6f5cf366)
_gpaw:  /zhome/06/4/136859/dft_venv/gpaw/
        _gpaw.cpython-38-x86_64-linux-gnu.so (3d6f5cf366)
ase:    /zhome/06/4/136859/dft_venv/ase/ase (version 3.23.0b1-d4570ca33a)
numpy:  /zhome/06/4/136859/dft_venv/lib/python3.8/site-packages/numpy (version 1.24.1)
scipy:  /zhome/06/4/136859/dft_venv/lib/python3.8/site-packages/scipy (version 1.10.0)
libxc:  4.3.4
units:  Angstrom and eV
cores: 24
OpenMP: False
OMP_NUM_THREADS: 1

Input parameters:
  basis: dzp
  kpts: [8 8 8]
  mode: {ecut: 250.0,
         name: pw}
  xc: PBE

System changes: positions, numbers, cell, pbc, initial_charges, initial_magmoms 

Initialize ...

species:
  Al:
    name: Aluminium
    id: 0292cae29f5d6237e50f6abdd43a7bdd
    Z: 13.0
    valence: 3
    core: 10
    charge: 0.0
    file: /zhome/86/d/1666/PAW/gpaw-setups-0.9.20000/Al.PBE.gz
    compensation charges: {type: gauss,
                           rc: 0.34,
                           lmax: 2}
    cutoffs: {filter: 1.91,
              core: 2.36}
    valence states:
      #              energy  rcut
      - 3s(2.00)    -7.753   1.085
      - 3p(1.00)    -2.712   1.085
      -  s          19.459   1.085
      -  p          24.499   1.085
      -  d           0.000   1.085
  
    # LCAO basis set for Al:
    #   Name: dzp
    #   File: /zhome/86/d/1666/PAW/gpaw-setups-0.9.20000/Al.dzp.basis.gz
    #   Number of radial functions: 5
    #   Number of spherical harmonics: 13
    #     l=0, rc=7.8750 Bohr: 3s-sz confined orbital
    #     l=1, rc=10.4219 Bohr: 3p-sz confined orbital
    #     l=0, rc=4.6094 Bohr: 3s-dz split-valence wave
    #     l=1, rc=6.2812 Bohr: 3p-dz split-valence wave
    #     l=2, rc=10.4219 Bohr: d-type Gaussian polarization
    #   Number of RI-basis functions 0

Reference energy: -6603.423265  # eV

Spin-paired calculation

Convergence criteria:
 Maximum [total energy] change in last 3 cyles: 0.0005 eV / valence electron
 Maximum integral of absolute [dens]ity change: 0.0001 electrons / valence electron
 Maximum integral of absolute [eigenst]ate change: 4e-08 eV^2 / valence electron
 Maximum number of scf [iter]ations: 333
 (Square brackets indicate name in SCF output, whereas a 'c' in
 the SCF output indicates the quantity has converged.)

Symmetries present (total): 48

  ( 1  0  0)  ( 1  0  0)  ( 1  0  0)  ( 1  0  0)  ( 1  0 -1)  ( 1  0 -1)
  ( 1  0 -1)  ( 1 -1  0)  ( 0  1  0)  ( 0  0  1)  ( 1  0  0)  ( 1 -1  0)
  ( 1 -1  0)  ( 1  0 -1)  ( 0  0  1)  ( 0  1  0)  ( 1 -1  0)  ( 1  0  0)

  ( 1  0 -1)  ( 1  0 -1)  ( 1 -1  0)  ( 1 -1  0)  ( 1 -1  0)  ( 1 -1  0)
  ( 0  1 -1)  ( 0  0 -1)  ( 1  0  0)  ( 1  0 -1)  ( 0 -1  1)  ( 0 -1  0)
  ( 0  0 -1)  ( 0  1 -1)  ( 1  0 -1)  ( 1  0  0)  ( 0 -1  0)  ( 0 -1  1)

  ( 0  1  0)  ( 0  1  0)  ( 0  1  0)  ( 0  1  0)  ( 0  1 -1)  ( 0  1 -1)
  ( 1  0  0)  ( 0  1 -1)  ( 0  0  1)  (-1  1  0)  ( 1  0 -1)  ( 0  1  0)
  ( 0  0  1)  (-1  1  0)  ( 1  0  0)  ( 0  1 -1)  ( 0  0 -1)  (-1  1  0)

  ( 0  1 -1)  ( 0  1 -1)  ( 0  0  1)  ( 0  0  1)  ( 0  0  1)  ( 0  0  1)
  ( 0  0 -1)  (-1  1  0)  ( 1  0  0)  ( 0  1  0)  ( 0 -1  1)  (-1  0  1)
  ( 1  0 -1)  ( 0  1  0)  ( 0  1  0)  ( 1  0  0)  (-1  0  1)  ( 0 -1  1)

  ( 0  0 -1)  ( 0  0 -1)  ( 0  0 -1)  ( 0  0 -1)  ( 0 -1  1)  ( 0 -1  1)
  ( 1  0 -1)  ( 0  1 -1)  ( 0 -1  0)  (-1  0  0)  ( 1 -1  0)  ( 0  0  1)
  ( 0  1 -1)  ( 1  0 -1)  (-1  0  0)  ( 0 -1  0)  ( 0 -1  0)  (-1  0  1)

  ( 0 -1  1)  ( 0 -1  1)  ( 0 -1  0)  ( 0 -1  0)  ( 0 -1  0)  ( 0 -1  0)
  ( 0 -1  0)  (-1  0  1)  ( 1 -1  0)  ( 0  0 -1)  ( 0 -1  1)  (-1  0  0)
  ( 1 -1  0)  ( 0  0  1)  ( 0 -1  1)  (-1  0  0)  ( 1 -1  0)  ( 0  0 -1)

  (-1  1  0)  (-1  1  0)  (-1  1  0)  (-1  1  0)  (-1  0  1)  (-1  0  1)
  ( 0  1  0)  ( 0  1 -1)  (-1  0  1)  (-1  0  0)  ( 0  0  1)  ( 0 -1  1)
  ( 0  1 -1)  ( 0  1  0)  (-1  0  0)  (-1  0  1)  ( 0 -1  1)  ( 0  0  1)

  (-1  0  1)  (-1  0  1)  (-1  0  0)  (-1  0  0)  (-1  0  0)  (-1  0  0)
  (-1  1  0)  (-1  0  0)  ( 0  0 -1)  ( 0 -1  0)  (-1  1  0)  (-1  0  1)
  (-1  0  0)  (-1  1  0)  ( 0 -1  0)  ( 0  0 -1)  (-1  0  1)  (-1  1  0)
Note: your k-points are not as symmetric as your crystal!

512 k-points: 8 x 8 x 8 Monkhorst-Pack grid
60 k-points in the irreducible part of the Brillouin zone
       k-points in crystal coordinates                weights
   0:     0.06250000    0.06250000   -0.06250000          6/512
   1:     0.06250000    0.06250000    0.06250000          2/512
   2:     0.18750000   -0.06250000   -0.06250000          6/512
   3:     0.18750000    0.06250000   -0.18750000         12/512
   4:     0.18750000    0.06250000   -0.06250000         12/512
   5:     0.18750000    0.06250000    0.06250000          6/512
   6:     0.18750000    0.18750000   -0.18750000          6/512
   7:     0.18750000    0.18750000   -0.06250000          6/512
   8:     0.18750000    0.18750000    0.06250000          6/512
   9:     0.18750000    0.18750000    0.18750000          2/512
          ...
  59:     0.43750000    0.43750000    0.43750000          2/512

Wave functions: Plane wave expansion
  Cutoff energy: 250.000 eV
  Number of coefficients (min, max): 134, 150
  Pulay-stress correction: 0.000000 eV/Ang^3 (de/decut=0.000000)
  Using FFTW library
  ScaLapack parameters: grid=1x1, blocksize=None
  Wavefunction extrapolation:
    Improved wavefunction reuse through dual PAW basis 

Occupation numbers: Fermi-Dirac:
  width: 0.1000  # eV
 

Eigensolver
   Davidson(niter=2) 

Densities:
  Coarse grid: 12*12*12 grid
  Fine grid: 24*24*24 grid
  Total Charge: 0.000000 

Density mixing:
  Method: separate
  Backend: pulay
  Linear mixing parameter: 0.05
  old densities: 5
  Damping of long wavelength oscillations: 50 

Hamiltonian:
  XC and Coulomb potentials evaluated on a 24*24*24 grid
  Using the PBE Exchange-Correlation functional
  External potential:
    NoExternalPotential
 

XC parameters: PBE with 2 nearest neighbor stencil

Memory estimate:
  Process memory now: 110.81 MiB
  Calculator: 0.58 MiB
    Density: 0.31 MiB
      Arrays: 0.17 MiB
      Localized functions: 0.07 MiB
      Mixer: 0.07 MiB
    Hamiltonian: 0.11 MiB
      Arrays: 0.11 MiB
      XC: 0.00 MiB
      Poisson: 0.00 MiB
      vbar: 0.00 MiB
    Wavefunctions: 0.15 MiB
      Arrays psit_nG: 0.02 MiB
      Eigensolver: 0.01 MiB
      Projections: 0.00 MiB
      Projectors: 0.04 MiB
      PW-descriptor: 0.07 MiB

Total number of cores used: 24
Parallelization over k-points: 12
Domain decomposition: 2 x 1 x 1

Number of atoms: 1
Number of atomic orbitals: 13
Number of bands in calculation: 4
Number of valence electrons: 3
Bands to converge: occupied

... initialized

Initializing position-dependent things.

Density initialized from atomic densities
Creating initial wave functions:
  4 bands from LCAO basis set

                
                
                
       Al       
                
                
                
                

Positions:
   0 Al     0.000000    0.000000    0.000000    ( 0.0000,  0.0000,  0.0000)

Unit cell:
           periodic     x           y           z      points  spacing
  1. axis:    yes    0.000000    1.978610    1.978610    12     0.1904
  2. axis:    yes    1.978610    0.000000    1.978610    12     0.1904
  3. axis:    yes    1.978610    1.978610    0.000000    12     0.1904

  Lengths:   2.798177   2.798177   2.798177
  Angles:   60.000000  60.000000  60.000000

Effective grid spacing dv^(1/3) = 0.2077

     iter     time        total  log10-change:
                         energy  eigst   dens
iter:   1 16:39:18    -3.718117
iter:   2 16:39:18    -3.718634  -3.87  -0.93
iter:   3 16:39:18    -3.724034  -3.00  -0.95
iter:   4 16:39:19    -3.724107  -4.50  -2.43
iter:   5 16:39:19    -3.724039c -5.19  -2.41
iter:   6 16:39:19    -3.724110c -4.68  -2.12
iter:   7 16:39:19    -3.724112c -6.04  -3.18
iter:   8 16:39:19    -3.724112c -7.35  -3.74
iter:   9 16:39:19    -3.724112c -8.94c -3.76
iter:  10 16:39:19    -3.724112c -10.98c -4.56c

Converged after 10 iterations.

Dipole moment: (0.000000, 0.000000, 0.000000) |e|*Ang

Energy contributions relative to reference atoms: (reference = -6603.423265)

Kinetic:         +5.918539
Potential:       -3.426996
External:        +0.000000
XC:              -6.197793
Entropy (-ST):   -0.010519
Local:           -0.012603
--------------------------
Free energy:     -3.729372
Extrapolated:    -3.724112

Showing only first 2 kpts
 Kpt  Band  Eigenvalues  Occupancy
  0     0     -3.39694    2.00000
  0     1     17.30436    0.00000
  0     2     18.93284    0.00000

  1     0     -3.69172    2.00000
  1     1     19.00260    0.00000
  1     2     20.44834    0.00000


Fermi level: 7.74529

No gap
System changes: cell 

Initialize ...

species:
  Al:
    name: Aluminium
    id: 0292cae29f5d6237e50f6abdd43a7bdd
    Z: 13.0
    valence: 3
    core: 10
    charge: 0.0
    file: /zhome/86/d/1666/PAW/gpaw-setups-0.9.20000/Al.PBE.gz
    compensation charges: {type: gauss,
                           rc: 0.34,
                           lmax: 2}
    cutoffs: {filter: 1.91,
              core: 2.36}
    valence states:
      #              energy  rcut
      - 3s(2.00)    -7.753   1.085
      - 3p(1.00)    -2.712   1.085
      -  s          19.459   1.085
      -  p          24.499   1.085
      -  d           0.000   1.085
  
    # LCAO basis set for Al:
    #   Name: dzp
    #   File: /zhome/86/d/1666/PAW/gpaw-setups-0.9.20000/Al.dzp.basis.gz
    #   Number of radial functions: 5
    #   Number of spherical harmonics: 13
    #     l=0, rc=7.8750 Bohr: 3s-sz confined orbital
    #     l=1, rc=10.4219 Bohr: 3p-sz confined orbital
    #     l=0, rc=4.6094 Bohr: 3s-dz split-valence wave
    #     l=1, rc=6.2812 Bohr: 3p-dz split-valence wave
    #     l=2, rc=10.4219 Bohr: d-type Gaussian polarization
    #   Number of RI-basis functions 0

Reference energy: -6603.423265  # eV

Spin-paired calculation

Convergence criteria:
 Maximum [total energy] change in last 3 cyles: 0.0005 eV / valence electron
 Maximum integral of absolute [dens]ity change: 0.0001 electrons / valence electron
 Maximum integral of absolute [eigenst]ate change: 4e-08 eV^2 / valence electron
 Maximum number of scf [iter]ations: 333
 (Square brackets indicate name in SCF output, whereas a 'c' in
 the SCF output indicates the quantity has converged.)

Symmetries present (total): 48

  ( 1  0  0)  ( 1  0  0)  ( 1  0  0)  ( 1  0  0)  ( 1  0 -1)  ( 1  0 -1)
  ( 1  0 -1)  ( 1 -1  0)  ( 0  1  0)  ( 0  0  1)  ( 1  0  0)  ( 1 -1  0)
  ( 1 -1  0)  ( 1  0 -1)  ( 0  0  1)  ( 0  1  0)  ( 1 -1  0)  ( 1  0  0)

  ( 1  0 -1)  ( 1  0 -1)  ( 1 -1  0)  ( 1 -1  0)  ( 1 -1  0)  ( 1 -1  0)
  ( 0  1 -1)  ( 0  0 -1)  ( 1  0  0)  ( 1  0 -1)  ( 0 -1  1)  ( 0 -1  0)
  ( 0  0 -1)  ( 0  1 -1)  ( 1  0 -1)  ( 1  0  0)  ( 0 -1  0)  ( 0 -1  1)

  ( 0  1  0)  ( 0  1  0)  ( 0  1  0)  ( 0  1  0)  ( 0  1 -1)  ( 0  1 -1)
  ( 1  0  0)  ( 0  1 -1)  ( 0  0  1)  (-1  1  0)  ( 1  0 -1)  ( 0  1  0)
  ( 0  0  1)  (-1  1  0)  ( 1  0  0)  ( 0  1 -1)  ( 0  0 -1)  (-1  1  0)

  ( 0  1 -1)  ( 0  1 -1)  ( 0  0  1)  ( 0  0  1)  ( 0  0  1)  ( 0  0  1)
  ( 0  0 -1)  (-1  1  0)  ( 1  0  0)  ( 0  1  0)  ( 0 -1  1)  (-1  0  1)
  ( 1  0 -1)  ( 0  1  0)  ( 0  1  0)  ( 1  0  0)  (-1  0  1)  ( 0 -1  1)

  ( 0  0 -1)  ( 0  0 -1)  ( 0  0 -1)  ( 0  0 -1)  ( 0 -1  1)  ( 0 -1  1)
  ( 1  0 -1)  ( 0  1 -1)  ( 0 -1  0)  (-1  0  0)  ( 1 -1  0)  ( 0  0  1)
  ( 0  1 -1)  ( 1  0 -1)  (-1  0  0)  ( 0 -1  0)  ( 0 -1  0)  (-1  0  1)

  ( 0 -1  1)  ( 0 -1  1)  ( 0 -1  0)  ( 0 -1  0)  ( 0 -1  0)  ( 0 -1  0)
  ( 0 -1  0)  (-1  0  1)  ( 1 -1  0)  ( 0  0 -1)  ( 0 -1  1)  (-1  0  0)
  ( 1 -1  0)  ( 0  0  1)  ( 0 -1  1)  (-1  0  0)  ( 1 -1  0)  ( 0  0 -1)

  (-1  1  0)  (-1  1  0)  (-1  1  0)  (-1  1  0)  (-1  0  1)  (-1  0  1)
  ( 0  1  0)  ( 0  1 -1)  (-1  0  1)  (-1  0  0)  ( 0  0  1)  ( 0 -1  1)
  ( 0  1 -1)  ( 0  1  0)  (-1  0  0)  (-1  0  1)  ( 0 -1  1)  ( 0  0  1)

  (-1  0  1)  (-1  0  1)  (-1  0  0)  (-1  0  0)  (-1  0  0)  (-1  0  0)
  (-1  1  0)  (-1  0  0)  ( 0  0 -1)  ( 0 -1  0)  (-1  1  0)  (-1  0  1)
  (-1  0  0)  (-1  1  0)  ( 0 -1  0)  ( 0  0 -1)  (-1  0  1)  (-1  1  0)
Note: your k-points are not as symmetric as your crystal!

512 k-points: 8 x 8 x 8 Monkhorst-Pack grid
60 k-points in the irreducible part of the Brillouin zone
       k-points in crystal coordinates                weights
   0:     0.06250000    0.06250000   -0.06250000          6/512
   1:     0.06250000    0.06250000    0.06250000          2/512
   2:     0.18750000   -0.06250000   -0.06250000          6/512
   3:     0.18750000    0.06250000   -0.18750000         12/512
   4:     0.18750000    0.06250000   -0.06250000         12/512
   5:     0.18750000    0.06250000    0.06250000          6/512
   6:     0.18750000    0.18750000   -0.18750000          6/512
   7:     0.18750000    0.18750000   -0.06250000          6/512
   8:     0.18750000    0.18750000    0.06250000          6/512
   9:     0.18750000    0.18750000    0.18750000          2/512
          ...
  59:     0.43750000    0.43750000    0.43750000          2/512

Wave functions: Plane wave expansion
  Cutoff energy: 250.000 eV
  Number of coefficients (min, max): 129, 144
  Pulay-stress correction: 0.000000 eV/Ang^3 (de/decut=0.000000)
  Using FFTW library
  ScaLapack parameters: grid=1x1, blocksize=None
  Wavefunction extrapolation:
    Improved wavefunction reuse through dual PAW basis 

Occupation numbers: Fermi-Dirac:
  width: 0.1000  # eV
 

Eigensolver
   Davidson(niter=2) 

Densities:
  Coarse grid: 12*12*12 grid
  Fine grid: 24*24*24 grid
  Total Charge: 0.000000 

Density mixing:
  Method: separate
  Backend: pulay
  Linear mixing parameter: 0.05
  old densities: 5
  Damping of long wavelength oscillations: 50 

Hamiltonian:
  XC and Coulomb potentials evaluated on a 24*24*24 grid
  Using the PBE Exchange-Correlation functional
  External potential:
    NoExternalPotential
 

XC parameters: PBE with 2 nearest neighbor stencil

Memory estimate:
  Process memory now: 111.00 MiB
  Calculator: 0.57 MiB
    Density: 0.31 MiB
      Arrays: 0.17 MiB
      Localized functions: 0.07 MiB
      Mixer: 0.07 MiB
    Hamiltonian: 0.11 MiB
      Arrays: 0.11 MiB
      XC: 0.00 MiB
      Poisson: 0.00 MiB
      vbar: 0.00 MiB
    Wavefunctions: 0.15 MiB
      Arrays psit_nG: 0.02 MiB
      Eigensolver: 0.01 MiB
      Projections: 0.00 MiB
      Projectors: 0.04 MiB
      PW-descriptor: 0.07 MiB

Total number of cores used: 24
Parallelization over k-points: 12
Domain decomposition: 2 x 1 x 1

Number of atoms: 1
Number of atomic orbitals: 13
Number of bands in calculation: 4
Number of valence electrons: 3
Bands to converge: occupied

... initialized

Initializing position-dependent things.

Density initialized from atomic densities
Creating initial wave functions:
  4 bands from LCAO basis set

                
                
                
       Al       
                
                
                
                

Positions:
   0 Al     0.000000    0.000000    0.000000    ( 0.0000,  0.0000,  0.0000)

Unit cell:
           periodic     x           y           z      points  spacing
  1. axis:    yes    0.000000    1.958824    1.958824    12     0.1885
  2. axis:    yes    1.958824    0.000000    1.958824    12     0.1885
  3. axis:    yes    1.958824    1.958824    0.000000    12     0.1885

  Lengths:   2.770196   2.770196   2.770196
  Angles:   60.000000  60.000000  60.000000

Effective grid spacing dv^(1/3) = 0.2057

     iter     time        total  log10-change:
                         energy  eigst   dens
iter:   1 16:39:20    -3.694858
iter:   2 16:39:20    -3.695606  -3.90  -0.93
iter:   3 16:39:20    -3.703483  -2.94  -0.96
iter:   4 16:39:20    -3.703581  -4.49  -2.41
iter:   5 16:39:20    -3.703374c -4.52  -2.37
iter:   6 16:39:20    -3.703574c -4.35  -1.89
iter:   7 16:39:20    -3.703576c -5.95  -3.26
iter:   8 16:39:21    -3.703573c -7.13  -3.72
iter:   9 16:39:21    -3.703576c -6.77  -3.19
iter:  10 16:39:21    -3.703576c -8.54c -4.60c

Converged after 10 iterations.

Dipole moment: (0.000000, 0.000000, 0.000000) |e|*Ang

Energy contributions relative to reference atoms: (reference = -6603.423265)

Kinetic:         +7.140072
Potential:       -4.345762
External:        +0.000000
XC:              -6.479111
Entropy (-ST):   -0.009993
Local:           -0.013778
--------------------------
Free energy:     -3.708573
Extrapolated:    -3.703576

Showing only first 2 kpts
 Kpt  Band  Eigenvalues  Occupancy
  0     0     -3.29952    2.00000
  0     1     17.76860    0.00000
  0     2     19.45145    0.00000

  1     0     -3.60036    2.00000
  1     1     19.49279    0.00000
  1     2     20.95402    0.00000


Fermi level: 8.04196

No gap
System changes: cell 

Initialize ...

species:
  Al:
    name: Aluminium
    id: 0292cae29f5d6237e50f6abdd43a7bdd
    Z: 13.0
    valence: 3
    core: 10
    charge: 0.0
    file: /zhome/86/d/1666/PAW/gpaw-setups-0.9.20000/Al.PBE.gz
    compensation charges: {type: gauss,
                           rc: 0.34,
                           lmax: 2}
    cutoffs: {filter: 1.91,
              core: 2.36}
    valence states:
      #              energy  rcut
      - 3s(2.00)    -7.753   1.085
      - 3p(1.00)    -2.712   1.085
      -  s          19.459   1.085
      -  p          24.499   1.085
      -  d           0.000   1.085
  
    # LCAO basis set for Al:
    #   Name: dzp
    #   File: /zhome/86/d/1666/PAW/gpaw-setups-0.9.20000/Al.dzp.basis.gz
    #   Number of radial functions: 5
    #   Number of spherical harmonics: 13
    #     l=0, rc=7.8750 Bohr: 3s-sz confined orbital
    #     l=1, rc=10.4219 Bohr: 3p-sz confined orbital
    #     l=0, rc=4.6094 Bohr: 3s-dz split-valence wave
    #     l=1, rc=6.2812 Bohr: 3p-dz split-valence wave
    #     l=2, rc=10.4219 Bohr: d-type Gaussian polarization
    #   Number of RI-basis functions 0

Reference energy: -6603.423265  # eV

Spin-paired calculation

Convergence criteria:
 Maximum [total energy] change in last 3 cyles: 0.0005 eV / valence electron
 Maximum integral of absolute [dens]ity change: 0.0001 electrons / valence electron
 Maximum integral of absolute [eigenst]ate change: 4e-08 eV^2 / valence electron
 Maximum number of scf [iter]ations: 333
 (Square brackets indicate name in SCF output, whereas a 'c' in
 the SCF output indicates the quantity has converged.)

Symmetries present (total): 48

  ( 1  0  0)  ( 1  0  0)  ( 1  0  0)  ( 1  0  0)  ( 1  0 -1)  ( 1  0 -1)
  ( 1  0 -1)  ( 1 -1  0)  ( 0  1  0)  ( 0  0  1)  ( 1  0  0)  ( 1 -1  0)
  ( 1 -1  0)  ( 1  0 -1)  ( 0  0  1)  ( 0  1  0)  ( 1 -1  0)  ( 1  0  0)

  ( 1  0 -1)  ( 1  0 -1)  ( 1 -1  0)  ( 1 -1  0)  ( 1 -1  0)  ( 1 -1  0)
  ( 0  1 -1)  ( 0  0 -1)  ( 1  0  0)  ( 1  0 -1)  ( 0 -1  1)  ( 0 -1  0)
  ( 0  0 -1)  ( 0  1 -1)  ( 1  0 -1)  ( 1  0  0)  ( 0 -1  0)  ( 0 -1  1)

  ( 0  1  0)  ( 0  1  0)  ( 0  1  0)  ( 0  1  0)  ( 0  1 -1)  ( 0  1 -1)
  ( 1  0  0)  ( 0  1 -1)  ( 0  0  1)  (-1  1  0)  ( 1  0 -1)  ( 0  1  0)
  ( 0  0  1)  (-1  1  0)  ( 1  0  0)  ( 0  1 -1)  ( 0  0 -1)  (-1  1  0)

  ( 0  1 -1)  ( 0  1 -1)  ( 0  0  1)  ( 0  0  1)  ( 0  0  1)  ( 0  0  1)
  ( 0  0 -1)  (-1  1  0)  ( 1  0  0)  ( 0  1  0)  ( 0 -1  1)  (-1  0  1)
  ( 1  0 -1)  ( 0  1  0)  ( 0  1  0)  ( 1  0  0)  (-1  0  1)  ( 0 -1  1)

  ( 0  0 -1)  ( 0  0 -1)  ( 0  0 -1)  ( 0  0 -1)  ( 0 -1  1)  ( 0 -1  1)
  ( 1  0 -1)  ( 0  1 -1)  ( 0 -1  0)  (-1  0  0)  ( 1 -1  0)  ( 0  0  1)
  ( 0  1 -1)  ( 1  0 -1)  (-1  0  0)  ( 0 -1  0)  ( 0 -1  0)  (-1  0  1)

  ( 0 -1  1)  ( 0 -1  1)  ( 0 -1  0)  ( 0 -1  0)  ( 0 -1  0)  ( 0 -1  0)
  ( 0 -1  0)  (-1  0  1)  ( 1 -1  0)  ( 0  0 -1)  ( 0 -1  1)  (-1  0  0)
  ( 1 -1  0)  ( 0  0  1)  ( 0 -1  1)  (-1  0  0)  ( 1 -1  0)  ( 0  0 -1)

  (-1  1  0)  (-1  1  0)  (-1  1  0)  (-1  1  0)  (-1  0  1)  (-1  0  1)
  ( 0  1  0)  ( 0  1 -1)  (-1  0  1)  (-1  0  0)  ( 0  0  1)  ( 0 -1  1)
  ( 0  1 -1)  ( 0  1  0)  (-1  0  0)  (-1  0  1)  ( 0 -1  1)  ( 0  0  1)

  (-1  0  1)  (-1  0  1)  (-1  0  0)  (-1  0  0)  (-1  0  0)  (-1  0  0)
  (-1  1  0)  (-1  0  0)  ( 0  0 -1)  ( 0 -1  0)  (-1  1  0)  (-1  0  1)
  (-1  0  0)  (-1  1  0)  ( 0 -1  0)  ( 0  0 -1)  (-1  0  1)  (-1  1  0)
Note: your k-points are not as symmetric as your crystal!

512 k-points: 8 x 8 x 8 Monkhorst-Pack grid
60 k-points in the irreducible part of the Brillouin zone
       k-points in crystal coordinates                weights
   0:     0.06250000    0.06250000   -0.06250000          6/512
   1:     0.06250000    0.06250000    0.06250000          2/512
   2:     0.18750000   -0.06250000   -0.06250000          6/512
   3:     0.18750000    0.06250000   -0.18750000         12/512
   4:     0.18750000    0.06250000   -0.06250000         12/512
   5:     0.18750000    0.06250000    0.06250000          6/512
   6:     0.18750000    0.18750000   -0.18750000          6/512
   7:     0.18750000    0.18750000   -0.06250000          6/512
   8:     0.18750000    0.18750000    0.06250000          6/512
   9:     0.18750000    0.18750000    0.18750000          2/512
          ...
  59:     0.43750000    0.43750000    0.43750000          2/512

Wave functions: Plane wave expansion
  Cutoff energy: 250.000 eV
  Number of coefficients (min, max): 134, 150
  Pulay-stress correction: 0.000000 eV/Ang^3 (de/decut=0.000000)
  Using FFTW library
  ScaLapack parameters: grid=1x1, blocksize=None
  Wavefunction extrapolation:
    Improved wavefunction reuse through dual PAW basis 

Occupation numbers: Fermi-Dirac:
  width: 0.1000  # eV
 

Eigensolver
   Davidson(niter=2) 

Densities:
  Coarse grid: 12*12*12 grid
  Fine grid: 24*24*24 grid
  Total Charge: 0.000000 

Density mixing:
  Method: separate
  Backend: pulay
  Linear mixing parameter: 0.05
  old densities: 5
  Damping of long wavelength oscillations: 50 

Hamiltonian:
  XC and Coulomb potentials evaluated on a 24*24*24 grid
  Using the PBE Exchange-Correlation functional
  External potential:
    NoExternalPotential
 

XC parameters: PBE with 2 nearest neighbor stencil

Memory estimate:
  Process memory now: 111.14 MiB
  Calculator: 0.58 MiB
    Density: 0.31 MiB
      Arrays: 0.17 MiB
      Localized functions: 0.07 MiB
      Mixer: 0.07 MiB
    Hamiltonian: 0.11 MiB
      Arrays: 0.11 MiB
      XC: 0.00 MiB
      Poisson: 0.00 MiB
      vbar: 0.00 MiB
    Wavefunctions: 0.15 MiB
      Arrays psit_nG: 0.02 MiB
      Eigensolver: 0.01 MiB
      Projections: 0.00 MiB
      Projectors: 0.04 MiB
      PW-descriptor: 0.07 MiB

Total number of cores used: 24
Parallelization over k-points: 12
Domain decomposition: 2 x 1 x 1

Number of atoms: 1
Number of atomic orbitals: 13
Number of bands in calculation: 4
Number of valence electrons: 3
Bands to converge: occupied

... initialized

Initializing position-dependent things.

Density initialized from atomic densities
Creating initial wave functions:
  4 bands from LCAO basis set

                
                
                
       Al       
                
                
                
                

Positions:
   0 Al     0.000000    0.000000    0.000000    ( 0.0000,  0.0000,  0.0000)

Unit cell:
           periodic     x           y           z      points  spacing
  1. axis:    yes    0.000000    1.978412    1.978412    12     0.1904
  2. axis:    yes    1.978412    0.000000    1.978412    12     0.1904
  3. axis:    yes    1.978412    1.978412    0.000000    12     0.1904

  Lengths:   2.797898   2.797898   2.797898
  Angles:   60.000000  60.000000  60.000000

Effective grid spacing dv^(1/3) = 0.2077

     iter     time        total  log10-change:
                         energy  eigst   dens
iter:   1 16:39:22    -3.717932
iter:   2 16:39:22    -3.718451  -3.87  -0.93
iter:   3 16:39:22    -3.723875  -3.00  -0.95
iter:   4 16:39:22    -3.723948  -4.50  -2.43
iter:   5 16:39:22    -3.723879c -5.18  -2.41
iter:   6 16:39:22    -3.723950c -4.68  -2.11
iter:   7 16:39:22    -3.723953c -6.04  -3.18
iter:   8 16:39:22    -3.723953c -7.35  -3.73
iter:   9 16:39:22    -3.723953c -8.93c -3.75
iter:  10 16:39:22    -3.723953c -10.99c -4.57c

Converged after 10 iterations.

Dipole moment: (0.000000, 0.000000, 0.000000) |e|*Ang

Energy contributions relative to reference atoms: (reference = -6603.423265)

Kinetic:         +5.930268
Potential:       -3.435807
External:        +0.000000
XC:              -6.200550
Entropy (-ST):   -0.010514
Local:           -0.012608
--------------------------
Free energy:     -3.729210
Extrapolated:    -3.723953

Showing only first 2 kpts
 Kpt  Band  Eigenvalues  Occupancy
  0     0     -3.39599    2.00000
  0     1     17.30895    0.00000
  0     2     18.93796    0.00000

  1     0     -3.69083    2.00000
  1     1     19.00744    0.00000
  1     2     20.45334    0.00000


Fermi level: 7.74822

No gap
System changes: cell 

Initialize ...

species:
  Al:
    name: Aluminium
    id: 0292cae29f5d6237e50f6abdd43a7bdd
    Z: 13.0
    valence: 3
    core: 10
    charge: 0.0
    file: /zhome/86/d/1666/PAW/gpaw-setups-0.9.20000/Al.PBE.gz
    compensation charges: {type: gauss,
                           rc: 0.34,
                           lmax: 2}
    cutoffs: {filter: 1.91,
              core: 2.36}
    valence states:
      #              energy  rcut
      - 3s(2.00)    -7.753   1.085
      - 3p(1.00)    -2.712   1.085
      -  s          19.459   1.085
      -  p          24.499   1.085
      -  d           0.000   1.085
  
    # LCAO basis set for Al:
    #   Name: dzp
    #   File: /zhome/86/d/1666/PAW/gpaw-setups-0.9.20000/Al.dzp.basis.gz
    #   Number of radial functions: 5
    #   Number of spherical harmonics: 13
    #     l=0, rc=7.8750 Bohr: 3s-sz confined orbital
    #     l=1, rc=10.4219 Bohr: 3p-sz confined orbital
    #     l=0, rc=4.6094 Bohr: 3s-dz split-valence wave
    #     l=1, rc=6.2812 Bohr: 3p-dz split-valence wave
    #     l=2, rc=10.4219 Bohr: d-type Gaussian polarization
    #   Number of RI-basis functions 0

Reference energy: -6603.423265  # eV

Spin-paired calculation

Convergence criteria:
 Maximum [total energy] change in last 3 cyles: 0.0005 eV / valence electron
 Maximum integral of absolute [dens]ity change: 0.0001 electrons / valence electron
 Maximum integral of absolute [eigenst]ate change: 4e-08 eV^2 / valence electron
 Maximum number of scf [iter]ations: 333
 (Square brackets indicate name in SCF output, whereas a 'c' in
 the SCF output indicates the quantity has converged.)

Symmetries present (total): 48

  ( 1  0  0)  ( 1  0  0)  ( 1  0  0)  ( 1  0  0)  ( 1  0 -1)  ( 1  0 -1)
  ( 1  0 -1)  ( 1 -1  0)  ( 0  1  0)  ( 0  0  1)  ( 1  0  0)  ( 1 -1  0)
  ( 1 -1  0)  ( 1  0 -1)  ( 0  0  1)  ( 0  1  0)  ( 1 -1  0)  ( 1  0  0)

  ( 1  0 -1)  ( 1  0 -1)  ( 1 -1  0)  ( 1 -1  0)  ( 1 -1  0)  ( 1 -1  0)
  ( 0  1 -1)  ( 0  0 -1)  ( 1  0  0)  ( 1  0 -1)  ( 0 -1  1)  ( 0 -1  0)
  ( 0  0 -1)  ( 0  1 -1)  ( 1  0 -1)  ( 1  0  0)  ( 0 -1  0)  ( 0 -1  1)

  ( 0  1  0)  ( 0  1  0)  ( 0  1  0)  ( 0  1  0)  ( 0  1 -1)  ( 0  1 -1)
  ( 1  0  0)  ( 0  1 -1)  ( 0  0  1)  (-1  1  0)  ( 1  0 -1)  ( 0  1  0)
  ( 0  0  1)  (-1  1  0)  ( 1  0  0)  ( 0  1 -1)  ( 0  0 -1)  (-1  1  0)

  ( 0  1 -1)  ( 0  1 -1)  ( 0  0  1)  ( 0  0  1)  ( 0  0  1)  ( 0  0  1)
  ( 0  0 -1)  (-1  1  0)  ( 1  0  0)  ( 0  1  0)  ( 0 -1  1)  (-1  0  1)
  ( 1  0 -1)  ( 0  1  0)  ( 0  1  0)  ( 1  0  0)  (-1  0  1)  ( 0 -1  1)

  ( 0  0 -1)  ( 0  0 -1)  ( 0  0 -1)  ( 0  0 -1)  ( 0 -1  1)  ( 0 -1  1)
  ( 1  0 -1)  ( 0  1 -1)  ( 0 -1  0)  (-1  0  0)  ( 1 -1  0)  ( 0  0  1)
  ( 0  1 -1)  ( 1  0 -1)  (-1  0  0)  ( 0 -1  0)  ( 0 -1  0)  (-1  0  1)

  ( 0 -1  1)  ( 0 -1  1)  ( 0 -1  0)  ( 0 -1  0)  ( 0 -1  0)  ( 0 -1  0)
  ( 0 -1  0)  (-1  0  1)  ( 1 -1  0)  ( 0  0 -1)  ( 0 -1  1)  (-1  0  0)
  ( 1 -1  0)  ( 0  0  1)  ( 0 -1  1)  (-1  0  0)  ( 1 -1  0)  ( 0  0 -1)

  (-1  1  0)  (-1  1  0)  (-1  1  0)  (-1  1  0)  (-1  0  1)  (-1  0  1)
  ( 0  1  0)  ( 0  1 -1)  (-1  0  1)  (-1  0  0)  ( 0  0  1)  ( 0 -1  1)
  ( 0  1 -1)  ( 0  1  0)  (-1  0  0)  (-1  0  1)  ( 0 -1  1)  ( 0  0  1)

  (-1  0  1)  (-1  0  1)  (-1  0  0)  (-1  0  0)  (-1  0  0)  (-1  0  0)
  (-1  1  0)  (-1  0  0)  ( 0  0 -1)  ( 0 -1  0)  (-1  1  0)  (-1  0  1)
  (-1  0  0)  (-1  1  0)  ( 0 -1  0)  ( 0  0 -1)  (-1  0  1)  (-1  1  0)
Note: your k-points are not as symmetric as your crystal!

512 k-points: 8 x 8 x 8 Monkhorst-Pack grid
60 k-points in the irreducible part of the Brillouin zone
       k-points in crystal coordinates                weights
   0:     0.06250000    0.06250000   -0.06250000          6/512
   1:     0.06250000    0.06250000    0.06250000          2/512
   2:     0.18750000   -0.06250000   -0.06250000          6/512
   3:     0.18750000    0.06250000   -0.18750000         12/512
   4:     0.18750000    0.06250000   -0.06250000         12/512
   5:     0.18750000    0.06250000    0.06250000          6/512
   6:     0.18750000    0.18750000   -0.18750000          6/512
   7:     0.18750000    0.18750000   -0.06250000          6/512
   8:     0.18750000    0.18750000    0.06250000          6/512
   9:     0.18750000    0.18750000    0.18750000          2/512
          ...
  59:     0.43750000    0.43750000    0.43750000          2/512

Wave functions: Plane wave expansion
  Cutoff energy: 250.000 eV
  Number of coefficients (min, max): 142, 153
  Pulay-stress correction: 0.000000 eV/Ang^3 (de/decut=0.000000)
  Using FFTW library
  ScaLapack parameters: grid=1x1, blocksize=None
  Wavefunction extrapolation:
    Improved wavefunction reuse through dual PAW basis 

Occupation numbers: Fermi-Dirac:
  width: 0.1000  # eV
 

Eigensolver
   Davidson(niter=2) 

Densities:
  Coarse grid: 12*12*12 grid
  Fine grid: 24*24*24 grid
  Total Charge: 0.000000 

Density mixing:
  Method: separate
  Backend: pulay
  Linear mixing parameter: 0.05
  old densities: 5
  Damping of long wavelength oscillations: 50 

Hamiltonian:
  XC and Coulomb potentials evaluated on a 24*24*24 grid
  Using the PBE Exchange-Correlation functional
  External potential:
    NoExternalPotential
 

XC parameters: PBE with 2 nearest neighbor stencil

Memory estimate:
  Process memory now: 112.54 MiB
  Calculator: 0.58 MiB
    Density: 0.32 MiB
      Arrays: 0.17 MiB
      Localized functions: 0.08 MiB
      Mixer: 0.07 MiB
    Hamiltonian: 0.11 MiB
      Arrays: 0.11 MiB
      XC: 0.00 MiB
      Poisson: 0.00 MiB
      vbar: 0.00 MiB
    Wavefunctions: 0.15 MiB
      Arrays psit_nG: 0.02 MiB
      Eigensolver: 0.01 MiB
      Projections: 0.00 MiB
      Projectors: 0.04 MiB
      PW-descriptor: 0.07 MiB

Total number of cores used: 24
Parallelization over k-points: 12
Domain decomposition: 2 x 1 x 1

Number of atoms: 1
Number of atomic orbitals: 13
Number of bands in calculation: 4
Number of valence electrons: 3
Bands to converge: occupied

... initialized

Initializing position-dependent things.

Density initialized from atomic densities
Creating initial wave functions:
  4 bands from LCAO basis set

                
                
                
       Al       
                
                
                
                

Positions:
   0 Al     0.000000    0.000000    0.000000    ( 0.0000,  0.0000,  0.0000)

Unit cell:
           periodic     x           y           z      points  spacing
  1. axis:    yes    0.000000    2.017981    2.017981    12     0.1942
  2. axis:    yes    2.017981    0.000000    2.017981    12     0.1942
  3. axis:    yes    2.017981    2.017981    0.000000    12     0.1942

  Lengths:   2.853856   2.853856   2.853856
  Angles:   60.000000  60.000000  60.000000

Effective grid spacing dv^(1/3) = 0.2119

     iter     time        total  log10-change:
                         energy  eigst   dens
iter:   1 16:39:23    -3.738784
iter:   2 16:39:23    -3.738876  -3.85  -0.92
iter:   3 16:39:23    -3.739850c -3.13  -0.95
iter:   4 16:39:23    -3.739866c -4.69  -2.46
iter:   5 16:39:23    -3.739882c -5.66  -2.49
iter:   6 16:39:24    -3.739890c -5.75  -2.72
iter:   7 16:39:24    -3.739891c -6.49  -3.24
iter:   8 16:39:24    -3.739891c -8.50c -3.79
iter:   9 16:39:24    -3.739891c -10.31c -5.30c

Converged after 9 iterations.

Dipole moment: (-0.000000, -0.000000, -0.000000) |e|*Ang

Energy contributions relative to reference atoms: (reference = -6603.423265)

Kinetic:         +3.762724
Potential:       -1.815348
External:        +0.000000
XC:              -5.670510
Entropy (-ST):   -0.011702
Local:           -0.010907
--------------------------
Free energy:     -3.745742
Extrapolated:    -3.739891

Showing only first 2 kpts
 Kpt  Band  Eigenvalues  Occupancy
  0     0     -3.57756    2.00000
  0     1     16.41469    0.00000
  0     2     17.94033    0.00000

  1     0     -3.86118    2.00000
  1     1     18.06169    0.00000
  1     2     19.47574    0.00000


Fermi level: 7.17696

No gap
Timing:                              incl.     excl.
-----------------------------------------------------------
Hamiltonian:                         0.156     0.001   0.0% |
 Atomic:                             0.137     0.137   2.1% ||
  XC Correction:                     0.000     0.000   0.0% |
 Calculate atomic Hamiltonians:      0.001     0.001   0.0% |
 Communicate:                        0.000     0.000   0.0% |
 Initialize Hamiltonian:             0.000     0.000   0.0% |
 Poisson:                            0.000     0.000   0.0% |
 XC 3D grid:                         0.015     0.015   0.2% |
LCAO initialization:                 2.252     0.379   5.7% |-|
 LCAO eigensolver:                   1.048     0.001   0.0% |
  Calculate projections:             0.000     0.000   0.0% |
  DenseAtomicCorrection:             0.002     0.002   0.0% |
  Distribute overlap matrix:         0.001     0.001   0.0% |
  Orbital Layouts:                   0.005     0.005   0.1% |
  Potential matrix:                  1.028     1.028  15.4% |-----|
  Sum over cells:                    0.011     0.011   0.2% |
 LCAO to grid:                       0.130     0.130   2.0% ||
 Set positions (LCAO WFS):           0.694     0.084   1.3% ||
  Basic WFS set positions:           0.008     0.008   0.1% |
  Basis functions set positions:     0.000     0.000   0.0% |
  P tci:                             0.093     0.093   1.4% ||
  ST tci:                            0.371     0.371   5.6% |-|
  mktci:                             0.137     0.137   2.1% ||
PWDescriptor:                        0.037     0.037   0.6% |
SCF-cycle:                           2.971     0.304   4.5% |-|
 Davidson:                           0.954     0.224   3.4% ||
  Apply H:                           0.097     0.091   1.4% ||
   HMM T:                            0.006     0.006   0.1% |
  Subspace diag:                     0.187     0.014   0.2% |
   calc_h_matrix:                    0.134     0.033   0.5% |
    Apply H:                         0.102     0.095   1.4% ||
     HMM T:                          0.006     0.006   0.1% |
   diagonalize:                      0.027     0.027   0.4% |
   rotate_psi:                       0.012     0.012   0.2% |
  calc. matrices:                    0.393     0.200   3.0% ||
   Apply H:                          0.193     0.180   2.7% ||
    HMM T:                           0.013     0.013   0.2% |
  diagonalize:                       0.038     0.038   0.6% |
  rotate_psi:                        0.015     0.015   0.2% |
 Density:                            0.356     0.001   0.0% |
  Atomic density matrices:           0.037     0.037   0.6% |
  Mix:                               0.045     0.045   0.7% |
  Multipole moments:                 0.003     0.003   0.1% |
  Pseudo density:                    0.270     0.059   0.9% |
   Symmetrize density:               0.211     0.211   3.2% ||
 Hamiltonian:                        1.348     0.012   0.2% |
  Atomic:                            1.192     1.192  17.8% |------|
   XC Correction:                    0.000     0.000   0.0% |
  Calculate atomic Hamiltonians:     0.012     0.012   0.2% |
  Communicate:                       0.002     0.002   0.0% |
  Poisson:                           0.003     0.003   0.0% |
  XC 3D grid:                        0.128     0.128   1.9% ||
 Orthonormalize:                     0.008     0.002   0.0% |
  calc_s_matrix:                     0.002     0.002   0.0% |
  inverse-cholesky:                  0.002     0.002   0.0% |
  projections:                       0.002     0.002   0.0% |
  rotate_psi_s:                      0.000     0.000   0.0% |
Set symmetry:                        0.197     0.197   3.0% ||
Other:                               1.068     1.068  16.0% |-----|
-----------------------------------------------------------
Total:                                         6.681 100.0%

Memory usage: 112.60 MiB
Date: Wed Feb 22 16:39:24 2023
