
  ___ ___ ___ _ _ _  
 |   |   |_  | | | | 
 | | | | | . | | | | 
 |__ |  _|___|_____|  22.8.1b1
 |___|_|             

User:   s183553@n-62-21-90
Date:   Wed Feb 22 16:39:52 2023
Arch:   x86_64
Pid:    24842
CWD:    /zhome/06/4/136859/dft_course/CX3/finding_lattice_constant
Python: 3.8.5
gpaw:   /zhome/06/4/136859/dft_venv/gpaw/gpaw (3d6f5cf366)
_gpaw:  /zhome/06/4/136859/dft_venv/gpaw/
        _gpaw.cpython-38-x86_64-linux-gnu.so (3d6f5cf366)
ase:    /zhome/06/4/136859/dft_venv/ase/ase (version 3.23.0b1-d4570ca33a)
numpy:  /zhome/06/4/136859/dft_venv/lib/python3.8/site-packages/numpy (version 1.24.1)
scipy:  /zhome/06/4/136859/dft_venv/lib/python3.8/site-packages/scipy (version 1.10.0)
libxc:  4.3.4
units:  Angstrom and eV
cores: 24
OpenMP: False
OMP_NUM_THREADS: 1

Input parameters:
  basis: dzp
  kpts: [8 8 8]
  mode: {ecut: 500.0,
         name: pw}
  xc: PBE

System changes: positions, numbers, cell, pbc, initial_charges, initial_magmoms 

Initialize ...

species:
  Al:
    name: Aluminium
    id: 0292cae29f5d6237e50f6abdd43a7bdd
    Z: 13.0
    valence: 3
    core: 10
    charge: 0.0
    file: /zhome/86/d/1666/PAW/gpaw-setups-0.9.20000/Al.PBE.gz
    compensation charges: {type: gauss,
                           rc: 0.34,
                           lmax: 2}
    cutoffs: {filter: 1.91,
              core: 2.36}
    valence states:
      #              energy  rcut
      - 3s(2.00)    -7.753   1.085
      - 3p(1.00)    -2.712   1.085
      -  s          19.459   1.085
      -  p          24.499   1.085
      -  d           0.000   1.085
  
    # LCAO basis set for Al:
    #   Name: dzp
    #   File: /zhome/86/d/1666/PAW/gpaw-setups-0.9.20000/Al.dzp.basis.gz
    #   Number of radial functions: 5
    #   Number of spherical harmonics: 13
    #     l=0, rc=7.8750 Bohr: 3s-sz confined orbital
    #     l=1, rc=10.4219 Bohr: 3p-sz confined orbital
    #     l=0, rc=4.6094 Bohr: 3s-dz split-valence wave
    #     l=1, rc=6.2812 Bohr: 3p-dz split-valence wave
    #     l=2, rc=10.4219 Bohr: d-type Gaussian polarization
    #   Number of RI-basis functions 0

Reference energy: -6603.423265  # eV

Spin-paired calculation

Convergence criteria:
 Maximum [total energy] change in last 3 cyles: 0.0005 eV / valence electron
 Maximum integral of absolute [dens]ity change: 0.0001 electrons / valence electron
 Maximum integral of absolute [eigenst]ate change: 4e-08 eV^2 / valence electron
 Maximum number of scf [iter]ations: 333
 (Square brackets indicate name in SCF output, whereas a 'c' in
 the SCF output indicates the quantity has converged.)

Symmetries present (total): 48

  ( 1  0  0)  ( 1  0  0)  ( 1  0  0)  ( 1  0  0)  ( 1  0 -1)  ( 1  0 -1)
  ( 1  0 -1)  ( 1 -1  0)  ( 0  1  0)  ( 0  0  1)  ( 1  0  0)  ( 1 -1  0)
  ( 1 -1  0)  ( 1  0 -1)  ( 0  0  1)  ( 0  1  0)  ( 1 -1  0)  ( 1  0  0)

  ( 1  0 -1)  ( 1  0 -1)  ( 1 -1  0)  ( 1 -1  0)  ( 1 -1  0)  ( 1 -1  0)
  ( 0  1 -1)  ( 0  0 -1)  ( 1  0  0)  ( 1  0 -1)  ( 0 -1  1)  ( 0 -1  0)
  ( 0  0 -1)  ( 0  1 -1)  ( 1  0 -1)  ( 1  0  0)  ( 0 -1  0)  ( 0 -1  1)

  ( 0  1  0)  ( 0  1  0)  ( 0  1  0)  ( 0  1  0)  ( 0  1 -1)  ( 0  1 -1)
  ( 1  0  0)  ( 0  1 -1)  ( 0  0  1)  (-1  1  0)  ( 1  0 -1)  ( 0  1  0)
  ( 0  0  1)  (-1  1  0)  ( 1  0  0)  ( 0  1 -1)  ( 0  0 -1)  (-1  1  0)

  ( 0  1 -1)  ( 0  1 -1)  ( 0  0  1)  ( 0  0  1)  ( 0  0  1)  ( 0  0  1)
  ( 0  0 -1)  (-1  1  0)  ( 1  0  0)  ( 0  1  0)  ( 0 -1  1)  (-1  0  1)
  ( 1  0 -1)  ( 0  1  0)  ( 0  1  0)  ( 1  0  0)  (-1  0  1)  ( 0 -1  1)

  ( 0  0 -1)  ( 0  0 -1)  ( 0  0 -1)  ( 0  0 -1)  ( 0 -1  1)  ( 0 -1  1)
  ( 1  0 -1)  ( 0  1 -1)  ( 0 -1  0)  (-1  0  0)  ( 1 -1  0)  ( 0  0  1)
  ( 0  1 -1)  ( 1  0 -1)  (-1  0  0)  ( 0 -1  0)  ( 0 -1  0)  (-1  0  1)

  ( 0 -1  1)  ( 0 -1  1)  ( 0 -1  0)  ( 0 -1  0)  ( 0 -1  0)  ( 0 -1  0)
  ( 0 -1  0)  (-1  0  1)  ( 1 -1  0)  ( 0  0 -1)  ( 0 -1  1)  (-1  0  0)
  ( 1 -1  0)  ( 0  0  1)  ( 0 -1  1)  (-1  0  0)  ( 1 -1  0)  ( 0  0 -1)

  (-1  1  0)  (-1  1  0)  (-1  1  0)  (-1  1  0)  (-1  0  1)  (-1  0  1)
  ( 0  1  0)  ( 0  1 -1)  (-1  0  1)  (-1  0  0)  ( 0  0  1)  ( 0 -1  1)
  ( 0  1 -1)  ( 0  1  0)  (-1  0  0)  (-1  0  1)  ( 0 -1  1)  ( 0  0  1)

  (-1  0  1)  (-1  0  1)  (-1  0  0)  (-1  0  0)  (-1  0  0)  (-1  0  0)
  (-1  1  0)  (-1  0  0)  ( 0  0 -1)  ( 0 -1  0)  (-1  1  0)  (-1  0  1)
  (-1  0  0)  (-1  1  0)  ( 0 -1  0)  ( 0  0 -1)  (-1  0  1)  (-1  1  0)
Note: your k-points are not as symmetric as your crystal!

512 k-points: 8 x 8 x 8 Monkhorst-Pack grid
60 k-points in the irreducible part of the Brillouin zone
       k-points in crystal coordinates                weights
   0:     0.06250000    0.06250000   -0.06250000          6/512
   1:     0.06250000    0.06250000    0.06250000          2/512
   2:     0.18750000   -0.06250000   -0.06250000          6/512
   3:     0.18750000    0.06250000   -0.18750000         12/512
   4:     0.18750000    0.06250000   -0.06250000         12/512
   5:     0.18750000    0.06250000    0.06250000          6/512
   6:     0.18750000    0.18750000   -0.18750000          6/512
   7:     0.18750000    0.18750000   -0.06250000          6/512
   8:     0.18750000    0.18750000    0.06250000          6/512
   9:     0.18750000    0.18750000    0.18750000          2/512
          ...
  59:     0.43750000    0.43750000    0.43750000          2/512

Wave functions: Plane wave expansion
  Cutoff energy: 500.000 eV
  Number of coefficients (min, max): 378, 398
  Pulay-stress correction: 0.000000 eV/Ang^3 (de/decut=0.000000)
  Using FFTW library
  ScaLapack parameters: grid=1x1, blocksize=None
  Wavefunction extrapolation:
    Improved wavefunction reuse through dual PAW basis 

Occupation numbers: Fermi-Dirac:
  width: 0.1000  # eV
 

Eigensolver
   Davidson(niter=2) 

Densities:
  Coarse grid: 15*15*15 grid
  Fine grid: 30*30*30 grid
  Total Charge: 0.000000 

Density mixing:
  Method: separate
  Backend: pulay
  Linear mixing parameter: 0.05
  old densities: 5
  Damping of long wavelength oscillations: 50 

Hamiltonian:
  XC and Coulomb potentials evaluated on a 30*30*30 grid
  Using the PBE Exchange-Correlation functional
  External potential:
    NoExternalPotential
 

XC parameters: PBE with 2 nearest neighbor stencil

Memory estimate:
  Process memory now: 120.50 MiB
  Calculator: 1.25 MiB
    Density: 0.68 MiB
      Arrays: 0.34 MiB
      Localized functions: 0.21 MiB
      Mixer: 0.14 MiB
    Hamiltonian: 0.22 MiB
      Arrays: 0.22 MiB
      XC: 0.00 MiB
      Poisson: 0.00 MiB
      vbar: 0.00 MiB
    Wavefunctions: 0.35 MiB
      Arrays psit_nG: 0.06 MiB
      Eigensolver: 0.03 MiB
      Projections: 0.00 MiB
      Projectors: 0.11 MiB
      PW-descriptor: 0.15 MiB

Total number of cores used: 24
Parallelization over k-points: 12
Domain decomposition: 2 x 1 x 1

Number of atoms: 1
Number of atomic orbitals: 13
Number of bands in calculation: 4
Number of valence electrons: 3
Bands to converge: occupied

... initialized

Initializing position-dependent things.

Density initialized from atomic densities
Creating initial wave functions:
  4 bands from LCAO basis set

                
                
                
       Al       
                
                
                
                

Positions:
   0 Al     0.000000    0.000000    0.000000    ( 0.0000,  0.0000,  0.0000)

Unit cell:
           periodic     x           y           z      points  spacing
  1. axis:    yes    0.000000    1.973669    1.973669    15     0.1519
  2. axis:    yes    1.973669    0.000000    1.973669    15     0.1519
  3. axis:    yes    1.973669    1.973669    0.000000    15     0.1519

  Lengths:   2.791190   2.791190   2.791190
  Angles:   60.000000  60.000000  60.000000

Effective grid spacing dv^(1/3) = 0.1658

     iter     time        total  log10-change:
                         energy  eigst   dens
iter:   1 16:39:54    -3.715480
iter:   2 16:39:54    -3.716023  -3.86  -0.93
iter:   3 16:39:54    -3.721776  -2.96  -0.96
iter:   4 16:39:54    -3.721874  -4.43  -2.41
iter:   5 16:39:54    -3.721773c -4.79  -2.39
iter:   6 16:39:54    -3.721870c -4.48  -2.01
iter:   7 16:39:54    -3.721872c -5.96  -3.24
iter:   8 16:39:54    -3.721872c -7.43c -3.71
iter:   9 16:39:54    -3.721872c -7.45c -3.35
iter:  10 16:39:54    -3.721872c -9.34c -4.56c

Converged after 10 iterations.

Dipole moment: (-0.000000, -0.000000, -0.000000) |e|*Ang

Energy contributions relative to reference atoms: (reference = -6603.423265)

Kinetic:         +6.196554
Potential:       -3.639237
External:        +0.000000
XC:              -6.265534
Entropy (-ST):   -0.010386
Local:           -0.008462
--------------------------
Free energy:     -3.727065
Extrapolated:    -3.721872

Showing only first 2 kpts
 Kpt  Band  Eigenvalues  Occupancy
  0     0     -3.37370    2.00000
  0     1     17.41796    0.00000
  0     2     19.05974    0.00000

  1     0     -3.67007    2.00000
  1     1     19.12237    0.00000
  1     2     20.57150    0.00000


Fermi level: 7.81792

No gap
System changes: cell 

Initialize ...

species:
  Al:
    name: Aluminium
    id: 0292cae29f5d6237e50f6abdd43a7bdd
    Z: 13.0
    valence: 3
    core: 10
    charge: 0.0
    file: /zhome/86/d/1666/PAW/gpaw-setups-0.9.20000/Al.PBE.gz
    compensation charges: {type: gauss,
                           rc: 0.34,
                           lmax: 2}
    cutoffs: {filter: 1.91,
              core: 2.36}
    valence states:
      #              energy  rcut
      - 3s(2.00)    -7.753   1.085
      - 3p(1.00)    -2.712   1.085
      -  s          19.459   1.085
      -  p          24.499   1.085
      -  d           0.000   1.085
  
    # LCAO basis set for Al:
    #   Name: dzp
    #   File: /zhome/86/d/1666/PAW/gpaw-setups-0.9.20000/Al.dzp.basis.gz
    #   Number of radial functions: 5
    #   Number of spherical harmonics: 13
    #     l=0, rc=7.8750 Bohr: 3s-sz confined orbital
    #     l=1, rc=10.4219 Bohr: 3p-sz confined orbital
    #     l=0, rc=4.6094 Bohr: 3s-dz split-valence wave
    #     l=1, rc=6.2812 Bohr: 3p-dz split-valence wave
    #     l=2, rc=10.4219 Bohr: d-type Gaussian polarization
    #   Number of RI-basis functions 0

Reference energy: -6603.423265  # eV

Spin-paired calculation

Convergence criteria:
 Maximum [total energy] change in last 3 cyles: 0.0005 eV / valence electron
 Maximum integral of absolute [dens]ity change: 0.0001 electrons / valence electron
 Maximum integral of absolute [eigenst]ate change: 4e-08 eV^2 / valence electron
 Maximum number of scf [iter]ations: 333
 (Square brackets indicate name in SCF output, whereas a 'c' in
 the SCF output indicates the quantity has converged.)

Symmetries present (total): 48

  ( 1  0  0)  ( 1  0  0)  ( 1  0  0)  ( 1  0  0)  ( 1  0 -1)  ( 1  0 -1)
  ( 1  0 -1)  ( 1 -1  0)  ( 0  1  0)  ( 0  0  1)  ( 1  0  0)  ( 1 -1  0)
  ( 1 -1  0)  ( 1  0 -1)  ( 0  0  1)  ( 0  1  0)  ( 1 -1  0)  ( 1  0  0)

  ( 1  0 -1)  ( 1  0 -1)  ( 1 -1  0)  ( 1 -1  0)  ( 1 -1  0)  ( 1 -1  0)
  ( 0  1 -1)  ( 0  0 -1)  ( 1  0  0)  ( 1  0 -1)  ( 0 -1  1)  ( 0 -1  0)
  ( 0  0 -1)  ( 0  1 -1)  ( 1  0 -1)  ( 1  0  0)  ( 0 -1  0)  ( 0 -1  1)

  ( 0  1  0)  ( 0  1  0)  ( 0  1  0)  ( 0  1  0)  ( 0  1 -1)  ( 0  1 -1)
  ( 1  0  0)  ( 0  1 -1)  ( 0  0  1)  (-1  1  0)  ( 1  0 -1)  ( 0  1  0)
  ( 0  0  1)  (-1  1  0)  ( 1  0  0)  ( 0  1 -1)  ( 0  0 -1)  (-1  1  0)

  ( 0  1 -1)  ( 0  1 -1)  ( 0  0  1)  ( 0  0  1)  ( 0  0  1)  ( 0  0  1)
  ( 0  0 -1)  (-1  1  0)  ( 1  0  0)  ( 0  1  0)  ( 0 -1  1)  (-1  0  1)
  ( 1  0 -1)  ( 0  1  0)  ( 0  1  0)  ( 1  0  0)  (-1  0  1)  ( 0 -1  1)

  ( 0  0 -1)  ( 0  0 -1)  ( 0  0 -1)  ( 0  0 -1)  ( 0 -1  1)  ( 0 -1  1)
  ( 1  0 -1)  ( 0  1 -1)  ( 0 -1  0)  (-1  0  0)  ( 1 -1  0)  ( 0  0  1)
  ( 0  1 -1)  ( 1  0 -1)  (-1  0  0)  ( 0 -1  0)  ( 0 -1  0)  (-1  0  1)

  ( 0 -1  1)  ( 0 -1  1)  ( 0 -1  0)  ( 0 -1  0)  ( 0 -1  0)  ( 0 -1  0)
  ( 0 -1  0)  (-1  0  1)  ( 1 -1  0)  ( 0  0 -1)  ( 0 -1  1)  (-1  0  0)
  ( 1 -1  0)  ( 0  0  1)  ( 0 -1  1)  (-1  0  0)  ( 1 -1  0)  ( 0  0 -1)

  (-1  1  0)  (-1  1  0)  (-1  1  0)  (-1  1  0)  (-1  0  1)  (-1  0  1)
  ( 0  1  0)  ( 0  1 -1)  (-1  0  1)  (-1  0  0)  ( 0  0  1)  ( 0 -1  1)
  ( 0  1 -1)  ( 0  1  0)  (-1  0  0)  (-1  0  1)  ( 0 -1  1)  ( 0  0  1)

  (-1  0  1)  (-1  0  1)  (-1  0  0)  (-1  0  0)  (-1  0  0)  (-1  0  0)
  (-1  1  0)  (-1  0  0)  ( 0  0 -1)  ( 0 -1  0)  (-1  1  0)  (-1  0  1)
  (-1  0  0)  (-1  1  0)  ( 0 -1  0)  ( 0  0 -1)  (-1  0  1)  (-1  1  0)
Note: your k-points are not as symmetric as your crystal!

512 k-points: 8 x 8 x 8 Monkhorst-Pack grid
60 k-points in the irreducible part of the Brillouin zone
       k-points in crystal coordinates                weights
   0:     0.06250000    0.06250000   -0.06250000          6/512
   1:     0.06250000    0.06250000    0.06250000          2/512
   2:     0.18750000   -0.06250000   -0.06250000          6/512
   3:     0.18750000    0.06250000   -0.18750000         12/512
   4:     0.18750000    0.06250000   -0.06250000         12/512
   5:     0.18750000    0.06250000    0.06250000          6/512
   6:     0.18750000    0.18750000   -0.18750000          6/512
   7:     0.18750000    0.18750000   -0.06250000          6/512
   8:     0.18750000    0.18750000    0.06250000          6/512
   9:     0.18750000    0.18750000    0.18750000          2/512
          ...
  59:     0.43750000    0.43750000    0.43750000          2/512

Wave functions: Plane wave expansion
  Cutoff energy: 500.000 eV
  Number of coefficients (min, max): 363, 386
  Pulay-stress correction: 0.000000 eV/Ang^3 (de/decut=0.000000)
  Using FFTW library
  ScaLapack parameters: grid=1x1, blocksize=None
  Wavefunction extrapolation:
    Improved wavefunction reuse through dual PAW basis 

Occupation numbers: Fermi-Dirac:
  width: 0.1000  # eV
 

Eigensolver
   Davidson(niter=2) 

Densities:
  Coarse grid: 15*15*15 grid
  Fine grid: 30*30*30 grid
  Total Charge: 0.000000 

Density mixing:
  Method: separate
  Backend: pulay
  Linear mixing parameter: 0.05
  old densities: 5
  Damping of long wavelength oscillations: 50 

Hamiltonian:
  XC and Coulomb potentials evaluated on a 30*30*30 grid
  Using the PBE Exchange-Correlation functional
  External potential:
    NoExternalPotential
 

XC parameters: PBE with 2 nearest neighbor stencil

Memory estimate:
  Process memory now: 120.52 MiB
  Calculator: 1.24 MiB
    Density: 0.67 MiB
      Arrays: 0.34 MiB
      Localized functions: 0.20 MiB
      Mixer: 0.14 MiB
    Hamiltonian: 0.22 MiB
      Arrays: 0.22 MiB
      XC: 0.00 MiB
      Poisson: 0.00 MiB
      vbar: 0.00 MiB
    Wavefunctions: 0.34 MiB
      Arrays psit_nG: 0.06 MiB
      Eigensolver: 0.03 MiB
      Projections: 0.00 MiB
      Projectors: 0.10 MiB
      PW-descriptor: 0.15 MiB

Total number of cores used: 24
Parallelization over k-points: 12
Domain decomposition: 2 x 1 x 1

Number of atoms: 1
Number of atomic orbitals: 13
Number of bands in calculation: 4
Number of valence electrons: 3
Bands to converge: occupied

... initialized

Initializing position-dependent things.

Density initialized from atomic densities
Creating initial wave functions:
  4 bands from LCAO basis set

                
                
                
       Al       
                
                
                
                

Positions:
   0 Al     0.000000    0.000000    0.000000    ( 0.0000,  0.0000,  0.0000)

Unit cell:
           periodic     x           y           z      points  spacing
  1. axis:    yes    0.000000    1.953932    1.953932    15     0.1504
  2. axis:    yes    1.953932    0.000000    1.953932    15     0.1504
  3. axis:    yes    1.953932    1.953932    0.000000    15     0.1504

  Lengths:   2.763278   2.763278   2.763278
  Angles:   60.000000  60.000000  60.000000

Effective grid spacing dv^(1/3) = 0.1641

     iter     time        total  log10-change:
                         energy  eigst   dens
iter:   1 16:39:56    -3.689978
iter:   2 16:39:56    -3.690753  -3.89  -0.94
iter:   3 16:39:56    -3.698994  -2.89  -0.96
iter:   4 16:39:56    -3.699112  -4.45  -2.39
iter:   5 16:39:56    -3.698827c -4.33  -2.36
iter:   6 16:39:56    -3.699101c -4.20  -1.82
iter:   7 16:39:56    -3.699103c -5.92  -3.38
iter:   8 16:39:56    -3.699102c -8.21c -3.70
iter:   9 16:39:56    -3.699103c -7.09  -3.40
iter:  10 16:39:56    -3.699103c -8.80c -4.57c

Converged after 10 iterations.

Dipole moment: (-0.000000, 0.000000, -0.000000) |e|*Ang

Energy contributions relative to reference atoms: (reference = -6603.423265)

Kinetic:         +7.437326
Potential:       -4.573165
External:        +0.000000
XC:              -6.548806
Entropy (-ST):   -0.009872
Local:           -0.009521
--------------------------
Free energy:     -3.704039
Extrapolated:    -3.699103

Showing only first 2 kpts
 Kpt  Band  Eigenvalues  Occupancy
  0     0     -3.27547    2.00000
  0     1     17.88393    0.00000
  0     2     19.58040    0.00000

  1     0     -3.57776    2.00000
  1     1     19.61430    0.00000
  1     2     21.07890    0.00000


Fermi level: 8.11593

No gap
System changes: cell 

Initialize ...

species:
  Al:
    name: Aluminium
    id: 0292cae29f5d6237e50f6abdd43a7bdd
    Z: 13.0
    valence: 3
    core: 10
    charge: 0.0
    file: /zhome/86/d/1666/PAW/gpaw-setups-0.9.20000/Al.PBE.gz
    compensation charges: {type: gauss,
                           rc: 0.34,
                           lmax: 2}
    cutoffs: {filter: 1.91,
              core: 2.36}
    valence states:
      #              energy  rcut
      - 3s(2.00)    -7.753   1.085
      - 3p(1.00)    -2.712   1.085
      -  s          19.459   1.085
      -  p          24.499   1.085
      -  d           0.000   1.085
  
    # LCAO basis set for Al:
    #   Name: dzp
    #   File: /zhome/86/d/1666/PAW/gpaw-setups-0.9.20000/Al.dzp.basis.gz
    #   Number of radial functions: 5
    #   Number of spherical harmonics: 13
    #     l=0, rc=7.8750 Bohr: 3s-sz confined orbital
    #     l=1, rc=10.4219 Bohr: 3p-sz confined orbital
    #     l=0, rc=4.6094 Bohr: 3s-dz split-valence wave
    #     l=1, rc=6.2812 Bohr: 3p-dz split-valence wave
    #     l=2, rc=10.4219 Bohr: d-type Gaussian polarization
    #   Number of RI-basis functions 0

Reference energy: -6603.423265  # eV

Spin-paired calculation

Convergence criteria:
 Maximum [total energy] change in last 3 cyles: 0.0005 eV / valence electron
 Maximum integral of absolute [dens]ity change: 0.0001 electrons / valence electron
 Maximum integral of absolute [eigenst]ate change: 4e-08 eV^2 / valence electron
 Maximum number of scf [iter]ations: 333
 (Square brackets indicate name in SCF output, whereas a 'c' in
 the SCF output indicates the quantity has converged.)

Symmetries present (total): 48

  ( 1  0  0)  ( 1  0  0)  ( 1  0  0)  ( 1  0  0)  ( 1  0 -1)  ( 1  0 -1)
  ( 1  0 -1)  ( 1 -1  0)  ( 0  1  0)  ( 0  0  1)  ( 1  0  0)  ( 1 -1  0)
  ( 1 -1  0)  ( 1  0 -1)  ( 0  0  1)  ( 0  1  0)  ( 1 -1  0)  ( 1  0  0)

  ( 1  0 -1)  ( 1  0 -1)  ( 1 -1  0)  ( 1 -1  0)  ( 1 -1  0)  ( 1 -1  0)
  ( 0  1 -1)  ( 0  0 -1)  ( 1  0  0)  ( 1  0 -1)  ( 0 -1  1)  ( 0 -1  0)
  ( 0  0 -1)  ( 0  1 -1)  ( 1  0 -1)  ( 1  0  0)  ( 0 -1  0)  ( 0 -1  1)

  ( 0  1  0)  ( 0  1  0)  ( 0  1  0)  ( 0  1  0)  ( 0  1 -1)  ( 0  1 -1)
  ( 1  0  0)  ( 0  1 -1)  ( 0  0  1)  (-1  1  0)  ( 1  0 -1)  ( 0  1  0)
  ( 0  0  1)  (-1  1  0)  ( 1  0  0)  ( 0  1 -1)  ( 0  0 -1)  (-1  1  0)

  ( 0  1 -1)  ( 0  1 -1)  ( 0  0  1)  ( 0  0  1)  ( 0  0  1)  ( 0  0  1)
  ( 0  0 -1)  (-1  1  0)  ( 1  0  0)  ( 0  1  0)  ( 0 -1  1)  (-1  0  1)
  ( 1  0 -1)  ( 0  1  0)  ( 0  1  0)  ( 1  0  0)  (-1  0  1)  ( 0 -1  1)

  ( 0  0 -1)  ( 0  0 -1)  ( 0  0 -1)  ( 0  0 -1)  ( 0 -1  1)  ( 0 -1  1)
  ( 1  0 -1)  ( 0  1 -1)  ( 0 -1  0)  (-1  0  0)  ( 1 -1  0)  ( 0  0  1)
  ( 0  1 -1)  ( 1  0 -1)  (-1  0  0)  ( 0 -1  0)  ( 0 -1  0)  (-1  0  1)

  ( 0 -1  1)  ( 0 -1  1)  ( 0 -1  0)  ( 0 -1  0)  ( 0 -1  0)  ( 0 -1  0)
  ( 0 -1  0)  (-1  0  1)  ( 1 -1  0)  ( 0  0 -1)  ( 0 -1  1)  (-1  0  0)
  ( 1 -1  0)  ( 0  0  1)  ( 0 -1  1)  (-1  0  0)  ( 1 -1  0)  ( 0  0 -1)

  (-1  1  0)  (-1  1  0)  (-1  1  0)  (-1  1  0)  (-1  0  1)  (-1  0  1)
  ( 0  1  0)  ( 0  1 -1)  (-1  0  1)  (-1  0  0)  ( 0  0  1)  ( 0 -1  1)
  ( 0  1 -1)  ( 0  1  0)  (-1  0  0)  (-1  0  1)  ( 0 -1  1)  ( 0  0  1)

  (-1  0  1)  (-1  0  1)  (-1  0  0)  (-1  0  0)  (-1  0  0)  (-1  0  0)
  (-1  1  0)  (-1  0  0)  ( 0  0 -1)  ( 0 -1  0)  (-1  1  0)  (-1  0  1)
  (-1  0  0)  (-1  1  0)  ( 0 -1  0)  ( 0  0 -1)  (-1  0  1)  (-1  1  0)
Note: your k-points are not as symmetric as your crystal!

512 k-points: 8 x 8 x 8 Monkhorst-Pack grid
60 k-points in the irreducible part of the Brillouin zone
       k-points in crystal coordinates                weights
   0:     0.06250000    0.06250000   -0.06250000          6/512
   1:     0.06250000    0.06250000    0.06250000          2/512
   2:     0.18750000   -0.06250000   -0.06250000          6/512
   3:     0.18750000    0.06250000   -0.18750000         12/512
   4:     0.18750000    0.06250000   -0.06250000         12/512
   5:     0.18750000    0.06250000    0.06250000          6/512
   6:     0.18750000    0.18750000   -0.18750000          6/512
   7:     0.18750000    0.18750000   -0.06250000          6/512
   8:     0.18750000    0.18750000    0.06250000          6/512
   9:     0.18750000    0.18750000    0.18750000          2/512
          ...
  59:     0.43750000    0.43750000    0.43750000          2/512

Wave functions: Plane wave expansion
  Cutoff energy: 500.000 eV
  Number of coefficients (min, max): 378, 398
  Pulay-stress correction: 0.000000 eV/Ang^3 (de/decut=0.000000)
  Using FFTW library
  ScaLapack parameters: grid=1x1, blocksize=None
  Wavefunction extrapolation:
    Improved wavefunction reuse through dual PAW basis 

Occupation numbers: Fermi-Dirac:
  width: 0.1000  # eV
 

Eigensolver
   Davidson(niter=2) 

Densities:
  Coarse grid: 15*15*15 grid
  Fine grid: 30*30*30 grid
  Total Charge: 0.000000 

Density mixing:
  Method: separate
  Backend: pulay
  Linear mixing parameter: 0.05
  old densities: 5
  Damping of long wavelength oscillations: 50 

Hamiltonian:
  XC and Coulomb potentials evaluated on a 30*30*30 grid
  Using the PBE Exchange-Correlation functional
  External potential:
    NoExternalPotential
 

XC parameters: PBE with 2 nearest neighbor stencil

Memory estimate:
  Process memory now: 120.86 MiB
  Calculator: 1.25 MiB
    Density: 0.68 MiB
      Arrays: 0.34 MiB
      Localized functions: 0.21 MiB
      Mixer: 0.14 MiB
    Hamiltonian: 0.22 MiB
      Arrays: 0.22 MiB
      XC: 0.00 MiB
      Poisson: 0.00 MiB
      vbar: 0.00 MiB
    Wavefunctions: 0.35 MiB
      Arrays psit_nG: 0.06 MiB
      Eigensolver: 0.03 MiB
      Projections: 0.00 MiB
      Projectors: 0.11 MiB
      PW-descriptor: 0.15 MiB

Total number of cores used: 24
Parallelization over k-points: 12
Domain decomposition: 2 x 1 x 1

Number of atoms: 1
Number of atomic orbitals: 13
Number of bands in calculation: 4
Number of valence electrons: 3
Bands to converge: occupied

... initialized

Initializing position-dependent things.

Density initialized from atomic densities
Creating initial wave functions:
  4 bands from LCAO basis set

                
                
                
       Al       
                
                
                
                

Positions:
   0 Al     0.000000    0.000000    0.000000    ( 0.0000,  0.0000,  0.0000)

Unit cell:
           periodic     x           y           z      points  spacing
  1. axis:    yes    0.000000    1.973472    1.973472    15     0.1519
  2. axis:    yes    1.973472    0.000000    1.973472    15     0.1519
  3. axis:    yes    1.973472    1.973472    0.000000    15     0.1519

  Lengths:   2.790910   2.790910   2.790910
  Angles:   60.000000  60.000000  60.000000

Effective grid spacing dv^(1/3) = 0.1658

     iter     time        total  log10-change:
                         energy  eigst   dens
iter:   1 16:39:58    -3.715271
iter:   2 16:39:58    -3.715816  -3.86  -0.93
iter:   3 16:39:58    -3.721593  -2.96  -0.96
iter:   4 16:39:58    -3.721692  -4.43  -2.41
iter:   5 16:39:58    -3.721589c -4.78  -2.39
iter:   6 16:39:58    -3.721687c -4.47  -2.00
iter:   7 16:39:58    -3.721689c -5.96  -3.24
iter:   8 16:39:58    -3.721689c -7.45c -3.71
iter:   9 16:39:58    -3.721689c -7.42c -3.35
iter:  10 16:39:59    -3.721689c -9.29c -4.57c

Converged after 10 iterations.

Dipole moment: (0.000000, -0.000000, -0.000000) |e|*Ang

Energy contributions relative to reference atoms: (reference = -6603.423265)

Kinetic:         +6.208501
Potential:       -3.648217
External:        +0.000000
XC:              -6.268312
Entropy (-ST):   -0.010380
Local:           -0.008471
--------------------------
Free energy:     -3.726879
Extrapolated:    -3.721689

Showing only first 2 kpts
 Kpt  Band  Eigenvalues  Occupancy
  0     0     -3.37274    2.00000
  0     1     17.42256    0.00000
  0     2     19.06488    0.00000

  1     0     -3.66917    2.00000
  1     1     19.12722    0.00000
  1     2     20.57652    0.00000


Fermi level: 7.82086

No gap
System changes: cell 

Initialize ...

species:
  Al:
    name: Aluminium
    id: 0292cae29f5d6237e50f6abdd43a7bdd
    Z: 13.0
    valence: 3
    core: 10
    charge: 0.0
    file: /zhome/86/d/1666/PAW/gpaw-setups-0.9.20000/Al.PBE.gz
    compensation charges: {type: gauss,
                           rc: 0.34,
                           lmax: 2}
    cutoffs: {filter: 1.91,
              core: 2.36}
    valence states:
      #              energy  rcut
      - 3s(2.00)    -7.753   1.085
      - 3p(1.00)    -2.712   1.085
      -  s          19.459   1.085
      -  p          24.499   1.085
      -  d           0.000   1.085
  
    # LCAO basis set for Al:
    #   Name: dzp
    #   File: /zhome/86/d/1666/PAW/gpaw-setups-0.9.20000/Al.dzp.basis.gz
    #   Number of radial functions: 5
    #   Number of spherical harmonics: 13
    #     l=0, rc=7.8750 Bohr: 3s-sz confined orbital
    #     l=1, rc=10.4219 Bohr: 3p-sz confined orbital
    #     l=0, rc=4.6094 Bohr: 3s-dz split-valence wave
    #     l=1, rc=6.2812 Bohr: 3p-dz split-valence wave
    #     l=2, rc=10.4219 Bohr: d-type Gaussian polarization
    #   Number of RI-basis functions 0

Reference energy: -6603.423265  # eV

Spin-paired calculation

Convergence criteria:
 Maximum [total energy] change in last 3 cyles: 0.0005 eV / valence electron
 Maximum integral of absolute [dens]ity change: 0.0001 electrons / valence electron
 Maximum integral of absolute [eigenst]ate change: 4e-08 eV^2 / valence electron
 Maximum number of scf [iter]ations: 333
 (Square brackets indicate name in SCF output, whereas a 'c' in
 the SCF output indicates the quantity has converged.)

Symmetries present (total): 48

  ( 1  0  0)  ( 1  0  0)  ( 1  0  0)  ( 1  0  0)  ( 1  0 -1)  ( 1  0 -1)
  ( 1  0 -1)  ( 1 -1  0)  ( 0  1  0)  ( 0  0  1)  ( 1  0  0)  ( 1 -1  0)
  ( 1 -1  0)  ( 1  0 -1)  ( 0  0  1)  ( 0  1  0)  ( 1 -1  0)  ( 1  0  0)

  ( 1  0 -1)  ( 1  0 -1)  ( 1 -1  0)  ( 1 -1  0)  ( 1 -1  0)  ( 1 -1  0)
  ( 0  1 -1)  ( 0  0 -1)  ( 1  0  0)  ( 1  0 -1)  ( 0 -1  1)  ( 0 -1  0)
  ( 0  0 -1)  ( 0  1 -1)  ( 1  0 -1)  ( 1  0  0)  ( 0 -1  0)  ( 0 -1  1)

  ( 0  1  0)  ( 0  1  0)  ( 0  1  0)  ( 0  1  0)  ( 0  1 -1)  ( 0  1 -1)
  ( 1  0  0)  ( 0  1 -1)  ( 0  0  1)  (-1  1  0)  ( 1  0 -1)  ( 0  1  0)
  ( 0  0  1)  (-1  1  0)  ( 1  0  0)  ( 0  1 -1)  ( 0  0 -1)  (-1  1  0)

  ( 0  1 -1)  ( 0  1 -1)  ( 0  0  1)  ( 0  0  1)  ( 0  0  1)  ( 0  0  1)
  ( 0  0 -1)  (-1  1  0)  ( 1  0  0)  ( 0  1  0)  ( 0 -1  1)  (-1  0  1)
  ( 1  0 -1)  ( 0  1  0)  ( 0  1  0)  ( 1  0  0)  (-1  0  1)  ( 0 -1  1)

  ( 0  0 -1)  ( 0  0 -1)  ( 0  0 -1)  ( 0  0 -1)  ( 0 -1  1)  ( 0 -1  1)
  ( 1  0 -1)  ( 0  1 -1)  ( 0 -1  0)  (-1  0  0)  ( 1 -1  0)  ( 0  0  1)
  ( 0  1 -1)  ( 1  0 -1)  (-1  0  0)  ( 0 -1  0)  ( 0 -1  0)  (-1  0  1)

  ( 0 -1  1)  ( 0 -1  1)  ( 0 -1  0)  ( 0 -1  0)  ( 0 -1  0)  ( 0 -1  0)
  ( 0 -1  0)  (-1  0  1)  ( 1 -1  0)  ( 0  0 -1)  ( 0 -1  1)  (-1  0  0)
  ( 1 -1  0)  ( 0  0  1)  ( 0 -1  1)  (-1  0  0)  ( 1 -1  0)  ( 0  0 -1)

  (-1  1  0)  (-1  1  0)  (-1  1  0)  (-1  1  0)  (-1  0  1)  (-1  0  1)
  ( 0  1  0)  ( 0  1 -1)  (-1  0  1)  (-1  0  0)  ( 0  0  1)  ( 0 -1  1)
  ( 0  1 -1)  ( 0  1  0)  (-1  0  0)  (-1  0  1)  ( 0 -1  1)  ( 0  0  1)

  (-1  0  1)  (-1  0  1)  (-1  0  0)  (-1  0  0)  (-1  0  0)  (-1  0  0)
  (-1  1  0)  (-1  0  0)  ( 0  0 -1)  ( 0 -1  0)  (-1  1  0)  (-1  0  1)
  (-1  0  0)  (-1  1  0)  ( 0 -1  0)  ( 0  0 -1)  (-1  0  1)  (-1  1  0)
Note: your k-points are not as symmetric as your crystal!

512 k-points: 8 x 8 x 8 Monkhorst-Pack grid
60 k-points in the irreducible part of the Brillouin zone
       k-points in crystal coordinates                weights
   0:     0.06250000    0.06250000   -0.06250000          6/512
   1:     0.06250000    0.06250000    0.06250000          2/512
   2:     0.18750000   -0.06250000   -0.06250000          6/512
   3:     0.18750000    0.06250000   -0.18750000         12/512
   4:     0.18750000    0.06250000   -0.06250000         12/512
   5:     0.18750000    0.06250000    0.06250000          6/512
   6:     0.18750000    0.18750000   -0.18750000          6/512
   7:     0.18750000    0.18750000   -0.06250000          6/512
   8:     0.18750000    0.18750000    0.06250000          6/512
   9:     0.18750000    0.18750000    0.18750000          2/512
          ...
  59:     0.43750000    0.43750000    0.43750000          2/512

Wave functions: Plane wave expansion
  Cutoff energy: 500.000 eV
  Number of coefficients (min, max): 407, 424
  Pulay-stress correction: 0.000000 eV/Ang^3 (de/decut=0.000000)
  Using FFTW library
  ScaLapack parameters: grid=1x1, blocksize=None
  Wavefunction extrapolation:
    Improved wavefunction reuse through dual PAW basis 

Occupation numbers: Fermi-Dirac:
  width: 0.1000  # eV
 

Eigensolver
   Davidson(niter=2) 

Densities:
  Coarse grid: 15*15*15 grid
  Fine grid: 30*30*30 grid
  Total Charge: 0.000000 

Density mixing:
  Method: separate
  Backend: pulay
  Linear mixing parameter: 0.05
  old densities: 5
  Damping of long wavelength oscillations: 50 

Hamiltonian:
  XC and Coulomb potentials evaluated on a 30*30*30 grid
  Using the PBE Exchange-Correlation functional
  External potential:
    NoExternalPotential
 

XC parameters: PBE with 2 nearest neighbor stencil

Memory estimate:
  Process memory now: 120.86 MiB
  Calculator: 1.28 MiB
    Density: 0.69 MiB
      Arrays: 0.34 MiB
      Localized functions: 0.22 MiB
      Mixer: 0.14 MiB
    Hamiltonian: 0.22 MiB
      Arrays: 0.22 MiB
      XC: 0.00 MiB
      Poisson: 0.00 MiB
      vbar: 0.00 MiB
    Wavefunctions: 0.36 MiB
      Arrays psit_nG: 0.06 MiB
      Eigensolver: 0.03 MiB
      Projections: 0.00 MiB
      Projectors: 0.11 MiB
      PW-descriptor: 0.15 MiB

Total number of cores used: 24
Parallelization over k-points: 12
Domain decomposition: 2 x 1 x 1

Number of atoms: 1
Number of atomic orbitals: 13
Number of bands in calculation: 4
Number of valence electrons: 3
Bands to converge: occupied

... initialized

Initializing position-dependent things.

Density initialized from atomic densities
Creating initial wave functions:
  4 bands from LCAO basis set

                
                
                
       Al       
                
                
                
                

Positions:
   0 Al     0.000000    0.000000    0.000000    ( 0.0000,  0.0000,  0.0000)

Unit cell:
           periodic     x           y           z      points  spacing
  1. axis:    yes    0.000000    2.012941    2.012941    15     0.1550
  2. axis:    yes    2.012941    0.000000    2.012941    15     0.1550
  3. axis:    yes    2.012941    2.012941    0.000000    15     0.1550

  Lengths:   2.846729   2.846729   2.846729
  Angles:   60.000000  60.000000  60.000000

Effective grid spacing dv^(1/3) = 0.1691

     iter     time        total  log10-change:
                         energy  eigst   dens
iter:   1 16:40:00    -3.740103
iter:   2 16:40:00    -3.740216  -3.84  -0.93
iter:   3 16:40:00    -3.741492c -3.10  -0.95
iter:   4 16:40:00    -3.741531c -4.59  -2.45
iter:   5 16:40:00    -3.741535c -5.90  -2.47
iter:   6 16:40:00    -3.741545c -5.32  -2.53
iter:   7 16:40:00    -3.741547c -6.39  -3.25
iter:   8 16:40:00    -3.741546c -7.51c -3.79
iter:   9 16:40:00    -3.741546c -9.39c -4.28c

Converged after 9 iterations.

Dipole moment: (-0.000000, -0.000000, -0.000000) |e|*Ang

Energy contributions relative to reference atoms: (reference = -6603.423265)

Kinetic:         +4.000078
Potential:       -1.994856
External:        +0.000000
XC:              -5.734177
Entropy (-ST):   -0.011547
Local:           -0.006818
--------------------------
Free energy:     -3.747320
Extrapolated:    -3.741546

Showing only first 2 kpts
 Kpt  Band  Eigenvalues  Occupancy
  0     0     -3.55601    2.00000
  0     1     16.52496    0.00000
  0     2     18.06328    0.00000

  1     0     -3.84105    2.00000
  1     1     18.17824    0.00000
  1     2     19.59607    0.00000


Fermi level: 7.24743

No gap
Input parameters:
  mode: {ecut: 400.0,
         name: pw}

