
  ___ ___ ___ _ _ _  
 |   |   |_  | | | | 
 | | | | | . | | | | 
 |__ |  _|___|_____|  22.8.1b1
 |___|_|             

User:   s183553@n-62-28-30
Date:   Wed Feb 22 08:55:39 2023
Arch:   x86_64
Pid:    22729
CWD:    /zhome/06/4/136859/dft_course/CX3
Python: 3.8.5
gpaw:   /zhome/06/4/136859/dft_venv/gpaw/gpaw (3d6f5cf366)
_gpaw:  /zhome/06/4/136859/dft_venv/gpaw/
        _gpaw.cpython-38-x86_64-linux-gnu.so (3d6f5cf366)
ase:    /zhome/06/4/136859/dft_venv/ase/ase (version 3.23.0b1-d4570ca33a)
numpy:  /zhome/06/4/136859/dft_venv/lib/python3.8/site-packages/numpy (version 1.24.1)
scipy:  /zhome/06/4/136859/dft_venv/lib/python3.8/site-packages/scipy (version 1.10.0)
libxc:  4.3.4
units:  Angstrom and eV
cores: 12
OpenMP: False
OMP_NUM_THREADS: 1

Input parameters:
  h: 0.25
  kpts: [12 12  1]
  nbands: 15

System changes: positions, numbers, cell, pbc, initial_charges, initial_magmoms 

Initialize ...

species:
  Al:
    name: Aluminium
    id: 2e6447feaea722efcff26bf034b25f30
    Z: 13.0
    valence: 3
    core: 10
    charge: 0.0
    file: /zhome/86/d/1666/PAW/gpaw-setups-0.9.20000/Al.LDA.gz
    compensation charges: {type: gauss,
                           rc: 0.34,
                           lmax: 2}
    cutoffs: {filter: 1.91,
              core: 2.36}
    valence states:
      #              energy  rcut
      - 3s(2.00)    -7.830   1.085
      - 3p(1.00)    -2.783   1.085
      -  s          19.382   1.085
      -  p          24.428   1.085
      -  d           0.000   1.085
  
    # Using partial waves for Al as LCAO basis

Reference energy: -32892.106537  # eV

Spin-paired calculation

Convergence criteria:
 Maximum [total energy] change in last 3 cyles: 0.0005 eV / valence electron
 Maximum integral of absolute [dens]ity change: 0.0001 electrons / valence electron
 Maximum integral of absolute [eigenst]ate change: 4e-08 eV^2 / valence electron
 Maximum number of scf [iter]ations: 333
 (Square brackets indicate name in SCF output, whereas a 'c' in
 the SCF output indicates the quantity has converged.)

Symmetries present (total): 16

  ( 1  0  0)  ( 1  0  0)  ( 1  0  0)  ( 1  0  0)  ( 0  1  0)  ( 0  1  0)
  ( 0  1  0)  ( 0  1  0)  ( 0 -1  0)  ( 0 -1  0)  ( 1  0  0)  ( 1  0  0)
  ( 0  0  1)  ( 0  0 -1)  ( 0  0  1)  ( 0  0 -1)  ( 0  0  1)  ( 0  0 -1)

  ( 0  1  0)  ( 0  1  0)  ( 0 -1  0)  ( 0 -1  0)  ( 0 -1  0)  ( 0 -1  0)
  (-1  0  0)  (-1  0  0)  ( 1  0  0)  ( 1  0  0)  (-1  0  0)  (-1  0  0)
  ( 0  0  1)  ( 0  0 -1)  ( 0  0  1)  ( 0  0 -1)  ( 0  0  1)  ( 0  0 -1)

  (-1  0  0)  (-1  0  0)  (-1  0  0)  (-1  0  0)
  ( 0  1  0)  ( 0  1  0)  ( 0 -1  0)  ( 0 -1  0)
  ( 0  0  1)  ( 0  0 -1)  ( 0  0  1)  ( 0  0 -1)

144 k-points: 12 x 12 x 1 Monkhorst-Pack grid
21 k-points in the irreducible part of the Brillouin zone
       k-points in crystal coordinates                weights
   0:     0.04166667    0.04166667    0.00000000          4/144
   1:     0.12500000    0.04166667    0.00000000          8/144
   2:     0.12500000    0.12500000    0.00000000          4/144
   3:     0.20833333    0.04166667    0.00000000          8/144
   4:     0.20833333    0.12500000    0.00000000          8/144
   5:     0.20833333    0.20833333    0.00000000          4/144
   6:     0.29166667    0.04166667    0.00000000          8/144
   7:     0.29166667    0.12500000    0.00000000          8/144
   8:     0.29166667    0.20833333    0.00000000          8/144
   9:     0.29166667    0.29166667    0.00000000          4/144
          ...
  20:     0.45833333    0.45833333    0.00000000          4/144

Wave functions: Uniform real-space grid
  Kinetic energy operator: 6*3+1=19 point O(h^6) finite-difference Laplacian
  ScaLapack parameters: grid=1x1, blocksize=None
  Wavefunction extrapolation:
    Improved wavefunction reuse through dual PAW basis 

Occupation numbers: Fermi-Dirac:
  width: 0.1000  # eV
 

Eigensolver
   Davidson(niter=2) 

Densities:
  Coarse grid: 12*12*92 grid
  Fine grid: 24*24*184 grid
  Total Charge: 0.000000 

Density mixing:
  Method: separate
  Backend: pulay
  Linear mixing parameter: 0.05
  old densities: 5
  Damping of long wavelength oscillations: 50 

Hamiltonian:
  XC and Coulomb potentials evaluated on a 24*24*184 grid
  Using the LDA Exchange-Correlation functional
  Interpolation: tri-quintic (5. degree polynomial)
  Poisson solver: FastPoissonSolver using
    Stencil: 6*3+1=19 point O(h^6) finite-difference Laplacian
    FFT axes: [0, 1]
    FST axes: [2]
 

Memory estimate:
  Process memory now: 127.02 MiB
  Calculator: 22.35 MiB
    Density: 11.98 MiB
      Arrays: 2.61 MiB
      Localized functions: 8.36 MiB
      Mixer: 1.00 MiB
    Hamiltonian: 2.33 MiB
      Arrays: 1.71 MiB
      XC: 0.00 MiB
      Poisson: 0.00 MiB
      vbar: 0.62 MiB
    Wavefunctions: 8.05 MiB
      Arrays psit_nG: 3.00 MiB
      Eigensolver: 4.03 MiB
      Projections: 0.01 MiB
      Projectors: 1.00 MiB

Total number of cores used: 12
Parallelization over k-points: 12

Number of atoms: 5
Number of atomic orbitals: 20
Number of bands in calculation: 15
Number of valence electrons: 15
Bands to converge: occupied

... initialized

Initializing position-dependent things.

Density initialized from atomic densities
Creating initial wave functions:
  15 bands from LCAO basis set

   .------.  
  /|      |  
 * |      |  
 | |      |  
 | |      |  
 | |      |  
 | |      |  
 | |      |  
 | |      |  
 | |      |  
 | |      |  
 Al|      |  
 | |      |  
 | | Al   |  
 | |      |  
 | |      |  
 Al|      |  
 | | Al   |  
 | |      |  
 | |      |  
 | |      |  
 Al|      |  
 | |      |  
 | |      |  
 | |      |  
 | |      |  
 | |      |  
 | |      |  
 | .------.  
 |/      /   
 *------*    

Positions:
   0 Al     0.000000    0.000000    7.500000    ( 0.0000,  0.0000,  0.0000)
   1 Al     1.431891    1.431891    9.525000    ( 0.0000,  0.0000,  0.0000)
   2 Al     0.000000    0.000000   11.550000    ( 0.0000,  0.0000,  0.0000)
   3 Al     1.431891    1.431891   13.575000    ( 0.0000,  0.0000,  0.0000)
   4 Al     0.000000    0.000000   15.600000    ( 0.0000,  0.0000,  0.0000)

Unit cell:
           periodic     x           y           z      points  spacing
  1. axis:    yes    2.863782    0.000000    0.000000    12     0.2386
  2. axis:    yes    0.000000    2.863782    0.000000    12     0.2386
  3. axis:    no     0.000000    0.000000   23.100000    92     0.2511

  Lengths:   2.863782   2.863782  23.100000
  Angles:   90.000000  90.000000  90.000000

Effective grid spacing dv^(1/3) = 0.2427

     iter     time        total  log10-change:
                         energy  eigst   dens
iter:   1 08:55:39   -19.803633
iter:   2 08:55:40   -19.780315  +0.01  -0.90
iter:   3 08:55:40   -19.767123  -0.53  -0.95
iter:   4 08:55:40   -19.781402  -0.29  -0.99
iter:   5 08:55:41   -19.739844  -1.27  -1.35
iter:   6 08:55:41   -19.715317  -1.10  -1.53
iter:   7 08:55:42   -19.723806  -1.50  -2.06
iter:   8 08:55:42   -19.712328  -1.96  -1.82
iter:   9 08:55:42   -19.712276  -2.26  -2.53
iter:  10 08:55:43   -19.712786c -2.59  -2.74
iter:  11 08:55:43   -19.712365c -3.34  -2.46
iter:  12 08:55:43   -19.712335c -3.25  -2.83
iter:  13 08:55:44   -19.712258c -4.02  -2.89
iter:  14 08:55:44   -19.712258c -4.22  -3.43
iter:  15 08:55:44   -19.712266c -4.80  -3.62
iter:  16 08:55:45   -19.712258c -4.88  -3.31
iter:  17 08:55:45   -19.712259c -5.01  -3.90
iter:  18 08:55:45   -19.712259c -5.70  -4.41c
iter:  19 08:55:46   -19.712259c -6.06  -4.30c
iter:  20 08:55:46   -19.712259c -6.58  -4.12c
iter:  21 08:55:46   -19.712259c -6.75  -4.41c
iter:  22 08:55:47   -19.712259c -7.27  -4.61c
iter:  23 08:55:47   -19.712259c -7.27  -4.60c
iter:  24 08:55:47   -19.712259c -7.61c -4.65c

Converged after 24 iterations.

Dipole moment: (-1.793179, -1.793179, -0.000000) |e|*Ang

Energy contributions relative to reference atoms: (reference = -32892.106537)

Kinetic:        +15.493536
Potential:       -8.189164
External:        +0.000000
XC:             -26.951237
Entropy (-ST):   -0.076046
Local:           -0.027372
--------------------------
Free energy:    -19.750282
Extrapolated:   -19.712259

Showing only first 2 kpts
 Kpt  Band  Eigenvalues  Occupancy
  0     5     -6.46048    2.00000
  0     6     -3.40953    0.00005
  0     7     -1.32212    0.00000
  0     8     -0.13202    0.00000

  1     5     -6.22933    2.00000
  1     6     -3.19011    0.00001
  1     7     -2.12036    0.00000
  1     8     -1.32736    0.00000


Fermi level: -4.46679

No gap
Writing to slab_5.gpw (mode='')

Timing:                              incl.     excl.
-----------------------------------------------------------
Hamiltonian:                         0.062     0.000   0.0% |
 Atomic:                             0.013     0.013   0.1% |
  XC Correction:                     0.000     0.000   0.0% |
 Calculate atomic Hamiltonians:      0.003     0.003   0.0% |
 Communicate:                        0.000     0.000   0.0% |
 Hartree integrate/restrict:         0.003     0.003   0.0% |
 Initialize Hamiltonian:             0.000     0.000   0.0% |
 Poisson:                            0.027     0.002   0.0% |
  Communicate from 1D:               0.003     0.003   0.0% |
  Communicate from 2D:               0.002     0.002   0.0% |
  Communicate to 1D:                 0.002     0.002   0.0% |
  Communicate to 2D:                 0.005     0.005   0.1% |
  FFT 1D:                            0.007     0.007   0.1% |
  FFT 2D:                            0.006     0.006   0.1% |
 XC 3D grid:                         0.015     0.015   0.2% |
 vbar:                               0.001     0.001   0.0% |
LCAO initialization:                 0.191     0.019   0.2% |
 LCAO eigensolver:                   0.068     0.000   0.0% |
  Calculate projections:             0.000     0.000   0.0% |
  DenseAtomicCorrection:             0.000     0.000   0.0% |
  Distribute overlap matrix:         0.000     0.000   0.0% |
  Orbital Layouts:                   0.000     0.000   0.0% |
  Potential matrix:                  0.067     0.067   0.8% |
  Sum over cells:                    0.000     0.000   0.0% |
 LCAO to grid:                       0.008     0.008   0.1% |
 Set positions (LCAO WFS):           0.095     0.022   0.2% |
  Basic WFS set positions:           0.002     0.002   0.0% |
  Basis functions set positions:     0.000     0.000   0.0% |
  P tci:                             0.028     0.028   0.3% |
  ST tci:                            0.032     0.032   0.4% |
  mktci:                             0.011     0.011   0.1% |
SCF-cycle:                           8.349     3.223  36.1% |-------------|
 Davidson:                           3.201     1.432  16.0% |-----|
  Apply hamiltonian:                 0.212     0.212   2.4% ||
  Subspace diag:                     0.414     0.002   0.0% |
   calc_h_matrix:                    0.308     0.095   1.1% |
    Apply hamiltonian:               0.212     0.212   2.4% ||
   diagonalize:                      0.006     0.006   0.1% |
   rotate_psi:                       0.098     0.098   1.1% |
  calc. matrices:                    0.952     0.533   6.0% |-|
   Apply hamiltonian:                0.419     0.419   4.7% |-|
  diagonalize:                       0.021     0.021   0.2% |
  rotate_psi:                        0.169     0.169   1.9% ||
 Density:                            0.518     0.000   0.0% |
  Atomic density matrices:           0.038     0.038   0.4% |
  Mix:                               0.157     0.157   1.8% ||
  Multipole moments:                 0.004     0.004   0.0% |
  Pseudo density:                    0.319     0.034   0.4% |
   Symmetrize density:               0.285     0.285   3.2% ||
 Hamiltonian:                        1.393     0.002   0.0% |
  Atomic:                            0.313     0.313   3.5% ||
   XC Correction:                    0.000     0.000   0.0% |
  Calculate atomic Hamiltonians:     0.069     0.069   0.8% |
  Communicate:                       0.002     0.002   0.0% |
  Hartree integrate/restrict:        0.058     0.058   0.6% |
  Poisson:                           0.578     0.032   0.4% |
   Communicate from 1D:              0.067     0.067   0.8% |
   Communicate from 2D:              0.041     0.041   0.5% |
   Communicate to 1D:                0.050     0.050   0.6% |
   Communicate to 2D:                0.104     0.104   1.2% |
   FFT 1D:                           0.150     0.150   1.7% ||
   FFT 2D:                           0.135     0.135   1.5% ||
  XC 3D grid:                        0.359     0.359   4.0% |-|
  vbar:                              0.013     0.013   0.1% |
 Orthonormalize:                     0.013     0.000   0.0% |
  calc_s_matrix:                     0.002     0.002   0.0% |
  inverse-cholesky:                  0.000     0.000   0.0% |
  projections:                       0.007     0.007   0.1% |
  rotate_psi_s:                      0.003     0.003   0.0% |
Set symmetry:                        0.010     0.010   0.1% |
Other:                               0.323     0.323   3.6% ||
-----------------------------------------------------------
Total:                                         8.934 100.0%

Memory usage: 135.48 MiB
Date: Wed Feb 22 08:55:48 2023
