
  ___ ___ ___ _ _ _  
 |   |   |_  | | | | 
 | | | | | . | | | | 
 |__ |  _|___|_____|  22.8.1b1
 |___|_|             

User:   s183553@n-62-28-30
Date:   Wed Feb 22 08:56:14 2023
Arch:   x86_64
Pid:    22729
CWD:    /zhome/06/4/136859/dft_course/CX3
Python: 3.8.5
gpaw:   /zhome/06/4/136859/dft_venv/gpaw/gpaw (3d6f5cf366)
_gpaw:  /zhome/06/4/136859/dft_venv/gpaw/
        _gpaw.cpython-38-x86_64-linux-gnu.so (3d6f5cf366)
ase:    /zhome/06/4/136859/dft_venv/ase/ase (version 3.23.0b1-d4570ca33a)
numpy:  /zhome/06/4/136859/dft_venv/lib/python3.8/site-packages/numpy (version 1.24.1)
scipy:  /zhome/06/4/136859/dft_venv/lib/python3.8/site-packages/scipy (version 1.10.0)
libxc:  4.3.4
units:  Angstrom and eV
cores: 12
OpenMP: False
OMP_NUM_THREADS: 1

Input parameters:
  h: 0.25
  kpts: [12 12  1]
  nbands: 24

System changes: positions, numbers, cell, pbc, initial_charges, initial_magmoms 

Initialize ...

species:
  Al:
    name: Aluminium
    id: 2e6447feaea722efcff26bf034b25f30
    Z: 13.0
    valence: 3
    core: 10
    charge: 0.0
    file: /zhome/86/d/1666/PAW/gpaw-setups-0.9.20000/Al.LDA.gz
    compensation charges: {type: gauss,
                           rc: 0.34,
                           lmax: 2}
    cutoffs: {filter: 1.91,
              core: 2.36}
    valence states:
      #              energy  rcut
      - 3s(2.00)    -7.830   1.085
      - 3p(1.00)    -2.783   1.085
      -  s          19.382   1.085
      -  p          24.428   1.085
      -  d           0.000   1.085
  
    # Using partial waves for Al as LCAO basis

Reference energy: -52627.370459  # eV

Spin-paired calculation

Convergence criteria:
 Maximum [total energy] change in last 3 cyles: 0.0005 eV / valence electron
 Maximum integral of absolute [dens]ity change: 0.0001 electrons / valence electron
 Maximum integral of absolute [eigenst]ate change: 4e-08 eV^2 / valence electron
 Maximum number of scf [iter]ations: 333
 (Square brackets indicate name in SCF output, whereas a 'c' in
 the SCF output indicates the quantity has converged.)

Symmetries present (total): 8

  ( 1  0  0)  ( 1  0  0)  ( 0  1  0)  ( 0  1  0)  ( 0 -1  0)  ( 0 -1  0)
  ( 0  1  0)  ( 0 -1  0)  ( 1  0  0)  (-1  0  0)  ( 1  0  0)  (-1  0  0)
  ( 0  0  1)  ( 0  0  1)  ( 0  0  1)  ( 0  0  1)  ( 0  0  1)  ( 0  0  1)

  (-1  0  0)  (-1  0  0)
  ( 0  1  0)  ( 0 -1  0)
  ( 0  0  1)  ( 0  0  1)

144 k-points: 12 x 12 x 1 Monkhorst-Pack grid
21 k-points in the irreducible part of the Brillouin zone
       k-points in crystal coordinates                weights
   0:     0.04166667    0.04166667    0.00000000          4/144
   1:     0.12500000    0.04166667    0.00000000          8/144
   2:     0.12500000    0.12500000    0.00000000          4/144
   3:     0.20833333    0.04166667    0.00000000          8/144
   4:     0.20833333    0.12500000    0.00000000          8/144
   5:     0.20833333    0.20833333    0.00000000          4/144
   6:     0.29166667    0.04166667    0.00000000          8/144
   7:     0.29166667    0.12500000    0.00000000          8/144
   8:     0.29166667    0.20833333    0.00000000          8/144
   9:     0.29166667    0.29166667    0.00000000          4/144
          ...
  20:     0.45833333    0.45833333    0.00000000          4/144

Wave functions: Uniform real-space grid
  Kinetic energy operator: 6*3+1=19 point O(h^6) finite-difference Laplacian
  ScaLapack parameters: grid=1x1, blocksize=None
  Wavefunction extrapolation:
    Improved wavefunction reuse through dual PAW basis 

Occupation numbers: Fermi-Dirac:
  width: 0.1000  # eV
 

Eigensolver
   Davidson(niter=2) 

Densities:
  Coarse grid: 12*12*116 grid
  Fine grid: 24*24*232 grid
  Total Charge: 0.000000 

Density mixing:
  Method: separate
  Backend: pulay
  Linear mixing parameter: 0.05
  old densities: 5
  Damping of long wavelength oscillations: 50 

Hamiltonian:
  XC and Coulomb potentials evaluated on a 24*24*232 grid
  Using the LDA Exchange-Correlation functional
  Interpolation: tri-quintic (5. degree polynomial)
  Poisson solver: FastPoissonSolver using
    Stencil: 6*3+1=19 point O(h^6) finite-difference Laplacian
    FFT axes: [0, 1]
    FST axes: [2]
 

Memory estimate:
  Process memory now: 151.67 MiB
  Calculator: 36.19 MiB
    Density: 17.92 MiB
      Arrays: 3.30 MiB
      Localized functions: 13.36 MiB
      Mixer: 1.26 MiB
    Hamiltonian: 3.14 MiB
      Arrays: 2.16 MiB
      XC: 0.00 MiB
      Poisson: 0.00 MiB
      vbar: 0.99 MiB
    Wavefunctions: 15.12 MiB
      Arrays psit_nG: 6.06 MiB
      Eigensolver: 7.42 MiB
      Projections: 0.04 MiB
      Projectors: 1.60 MiB

Total number of cores used: 12
Parallelization over k-points: 12

Number of atoms: 8
Number of atomic orbitals: 32
Number of bands in calculation: 24
Number of valence electrons: 24
Bands to converge: occupied

... initialized

Initializing position-dependent things.

Density initialized from atomic densities
Creating initial wave functions:
  24 bands from LCAO basis set

   .------.  
  /|      |  
 * |      |  
 | |      |  
 | |      |  
 | |      |  
 | |      |  
 | |      |  
 | |      |  
 | |      |  
 | |      |  
 Al|      |  
 | |      |  
 | | Al   |  
 | |      |  
 | |      |  
 Al|      |  
 | |      |  
 | | Al   |  
 | |      |  
 | |      |  
 Al|      |  
 | |      |  
 | | Al   |  
 | |      |  
 | |      |  
 Al|      |  
 | |      |  
 | | Al   |  
 | |      |  
 | |      |  
 | |      |  
 | |      |  
 | |      |  
 | |      |  
 | |      |  
 | .------.  
 |/      /   
 *------*    

Positions:
   0 Al     1.431891    1.431891    7.500000    ( 0.0000,  0.0000,  0.0000)
   1 Al     0.000000    0.000000    9.525000    ( 0.0000,  0.0000,  0.0000)
   2 Al     1.431891    1.431891   11.550000    ( 0.0000,  0.0000,  0.0000)
   3 Al     0.000000    0.000000   13.575000    ( 0.0000,  0.0000,  0.0000)
   4 Al     1.431891    1.431891   15.600000    ( 0.0000,  0.0000,  0.0000)
   5 Al     0.000000    0.000000   17.625000    ( 0.0000,  0.0000,  0.0000)
   6 Al     1.431891    1.431891   19.650000    ( 0.0000,  0.0000,  0.0000)
   7 Al     0.000000    0.000000   21.675000    ( 0.0000,  0.0000,  0.0000)

Unit cell:
           periodic     x           y           z      points  spacing
  1. axis:    yes    2.863782    0.000000    0.000000    12     0.2386
  2. axis:    yes    0.000000    2.863782    0.000000    12     0.2386
  3. axis:    no     0.000000    0.000000   29.175000   116     0.2515

  Lengths:   2.863782   2.863782  29.175000
  Angles:   90.000000  90.000000  90.000000

Effective grid spacing dv^(1/3) = 0.2429

     iter     time        total  log10-change:
                         energy  eigst   dens
iter:   1 08:56:15   -32.235101
iter:   2 08:56:16   -32.296262  +0.01  -0.92
iter:   3 08:56:17   -32.269205  -0.52  -0.96
iter:   4 08:56:18   -32.244949  -0.62  -0.97
iter:   5 08:56:18   -32.377636  -1.08  -1.14
iter:   6 08:56:19   -32.234437  -1.44  -1.13
iter:   7 08:56:20   -32.225634  -1.47  -1.28
iter:   8 08:56:20   -32.199516  -1.92  -1.62
iter:   9 08:56:21   -32.189725  -1.92  -1.78
iter:  10 08:56:22   -32.184309  -2.33  -2.01
iter:  11 08:56:22   -32.183548c -3.04  -2.25
iter:  12 08:56:23   -32.184672c -3.09  -2.37
iter:  13 08:56:24   -32.183464c -3.69  -2.31
iter:  14 08:56:25   -32.182785c -3.82  -2.49
iter:  15 08:56:25   -32.182725c -4.30  -2.69
iter:  16 08:56:26   -32.182654c -4.65  -2.76
iter:  17 08:56:27   -32.182627c -5.00  -2.85
iter:  18 08:56:27   -32.182620c -5.04  -2.96
iter:  19 08:56:28   -32.182643c -5.45  -3.11
iter:  20 08:56:29   -32.182603c -5.69  -3.06
iter:  21 08:56:29   -32.182613c -5.81  -3.28
iter:  22 08:56:30   -32.182615c -5.71  -3.38
iter:  23 08:56:31   -32.182615c -5.76  -3.47
iter:  24 08:56:31   -32.182610c -6.09  -3.53
iter:  25 08:56:32   -32.182611c -6.80  -3.56
iter:  26 08:56:33   -32.182606c -7.03  -3.53
iter:  27 08:56:34   -32.182601c -6.58  -3.61
iter:  28 08:56:34   -32.182602c -6.37  -3.72
iter:  29 08:56:35   -32.182603c -6.87  -3.81
iter:  30 08:56:36   -32.182606c -7.03  -3.85
iter:  31 08:56:36   -32.182606c -7.33  -3.94
iter:  32 08:56:37   -32.182606c -7.15  -3.87
iter:  33 08:56:38   -32.182605c -7.17  -4.07c
iter:  34 08:56:38   -32.182604c -7.32  -4.28c
iter:  35 08:56:39   -32.182604c -7.63c -4.38c

Converged after 35 iterations.

Dipole moment: (-2.208618, -2.208618, 0.000012) |e|*Ang

Energy contributions relative to reference atoms: (reference = -52627.370459)

Kinetic:        +27.412242
Potential:      -14.409104
External:        +0.000000
XC:             -45.074832
Entropy (-ST):   -0.124849
Local:           -0.048485
--------------------------
Free energy:    -32.245028
Extrapolated:   -32.182604

Showing only first 2 kpts
 Kpt  Band  Eigenvalues  Occupancy
  0    10     -2.52427    0.00000
  0    11     -1.06572    0.00000
  0    12     -0.21661    0.00000
  0    13     -0.10018    0.00000

  1    10     -2.33020    0.00000
  1    11     -2.22571    0.00000
  1    12     -1.84803    0.00000
  1    13     -1.31882    0.00000


Fermi level: -4.38205

No gap
Writing to slab_8.gpw (mode='')

Timing:                              incl.     excl.
-----------------------------------------------------------
Hamiltonian:                         0.083     0.000   0.0% |
 Atomic:                             0.019     0.019   0.1% |
  XC Correction:                     0.000     0.000   0.0% |
 Calculate atomic Hamiltonians:      0.006     0.006   0.0% |
 Communicate:                        0.000     0.000   0.0% |
 Hartree integrate/restrict:         0.003     0.003   0.0% |
 Initialize Hamiltonian:             0.001     0.001   0.0% |
 Poisson:                            0.033     0.002   0.0% |
  Communicate from 1D:               0.003     0.003   0.0% |
  Communicate from 2D:               0.002     0.002   0.0% |
  Communicate to 1D:                 0.003     0.003   0.0% |
  Communicate to 2D:                 0.006     0.006   0.0% |
  FFT 1D:                            0.009     0.009   0.0% |
  FFT 2D:                            0.008     0.008   0.0% |
 XC 3D grid:                         0.020     0.020   0.1% |
 vbar:                               0.001     0.001   0.0% |
LCAO initialization:                 0.319     0.019   0.1% |
 LCAO eigensolver:                   0.121     0.000   0.0% |
  Calculate projections:             0.000     0.000   0.0% |
  DenseAtomicCorrection:             0.000     0.000   0.0% |
  Distribute overlap matrix:         0.000     0.000   0.0% |
  Orbital Layouts:                   0.001     0.001   0.0% |
  Potential matrix:                  0.120     0.120   0.5% |
  Sum over cells:                    0.000     0.000   0.0% |
 LCAO to grid:                       0.017     0.017   0.1% |
 Set positions (LCAO WFS):           0.161     0.038   0.2% |
  Basic WFS set positions:           0.002     0.002   0.0% |
  Basis functions set positions:     0.000     0.000   0.0% |
  P tci:                             0.045     0.045   0.2% |
  ST tci:                            0.058     0.058   0.2% |
  mktci:                             0.018     0.018   0.1% |
SCF-cycle:                          24.366    10.414  41.4% |----------------|
 Davidson:                          10.501     4.981  19.8% |-------|
  Apply hamiltonian:                 0.640     0.640   2.5% ||
  Subspace diag:                     1.270     0.004   0.0% |
   calc_h_matrix:                    0.927     0.317   1.3% ||
    Apply hamiltonian:               0.609     0.609   2.4% ||
   diagonalize:                      0.012     0.012   0.0% |
   rotate_psi:                       0.328     0.328   1.3% ||
  calc. matrices:                    2.993     1.768   7.0% |--|
   Apply hamiltonian:                1.225     1.225   4.9% |-|
  diagonalize:                       0.070     0.070   0.3% |
  rotate_psi:                        0.547     0.547   2.2% ||
 Density:                            0.767     0.001   0.0% |
  Atomic density matrices:           0.062     0.062   0.2% |
  Mix:                               0.343     0.343   1.4% ||
  Multipole moments:                 0.007     0.007   0.0% |
  Pseudo density:                    0.355     0.083   0.3% |
   Symmetrize density:               0.272     0.272   1.1% |
 Hamiltonian:                        2.652     0.003   0.0% |
  Atomic:                            0.528     0.528   2.1% ||
   XC Correction:                    0.000     0.000   0.0% |
  Calculate atomic Hamiltonians:     0.218     0.218   0.9% |
  Communicate:                       0.004     0.004   0.0% |
  Hartree integrate/restrict:        0.129     0.129   0.5% |
  Poisson:                           1.071     0.069   0.3% |
   Communicate from 1D:              0.119     0.119   0.5% |
   Communicate from 2D:              0.067     0.067   0.3% |
   Communicate to 1D:                0.073     0.073   0.3% |
   Communicate to 2D:                0.167     0.167   0.7% |
   FFT 1D:                           0.309     0.309   1.2% |
   FFT 2D:                           0.268     0.268   1.1% |
  XC 3D grid:                        0.675     0.675   2.7% ||
  vbar:                              0.024     0.024   0.1% |
 Orthonormalize:                     0.031     0.000   0.0% |
  calc_s_matrix:                     0.005     0.005   0.0% |
  inverse-cholesky:                  0.000     0.000   0.0% |
  projections:                       0.019     0.019   0.1% |
  rotate_psi_s:                      0.006     0.006   0.0% |
Set symmetry:                        0.010     0.010   0.0% |
Other:                               0.388     0.388   1.5% ||
-----------------------------------------------------------
Total:                                        25.166 100.0%

Memory usage: 161.86 MiB
Date: Wed Feb 22 08:56:39 2023
