
  ___ ___ ___ _ _ _  
 |   |   |_  | | | | 
 | | | | | . | | | | 
 |__ |  _|___|_____|  22.8.1b1
 |___|_|             

User:   s183553@n-62-28-30
Date:   Wed Feb 22 08:55:27 2023
Arch:   x86_64
Pid:    22729
CWD:    /zhome/06/4/136859/dft_course/CX3
Python: 3.8.5
gpaw:   /zhome/06/4/136859/dft_venv/gpaw/gpaw (3d6f5cf366)
_gpaw:  /zhome/06/4/136859/dft_venv/gpaw/
        _gpaw.cpython-38-x86_64-linux-gnu.so (3d6f5cf366)
ase:    /zhome/06/4/136859/dft_venv/ase/ase (version 3.23.0b1-d4570ca33a)
numpy:  /zhome/06/4/136859/dft_venv/lib/python3.8/site-packages/numpy (version 1.24.1)
scipy:  /zhome/06/4/136859/dft_venv/lib/python3.8/site-packages/scipy (version 1.10.0)
libxc:  4.3.4
units:  Angstrom and eV
cores: 12
OpenMP: False
OMP_NUM_THREADS: 1

Input parameters:
  h: 0.25
  kpts: [12 12  1]
  nbands: 9

System changes: positions, numbers, cell, pbc, initial_charges, initial_magmoms 

Initialize ...

species:
  Al:
    name: Aluminium
    id: 2e6447feaea722efcff26bf034b25f30
    Z: 13.0
    valence: 3
    core: 10
    charge: 0.0
    file: /zhome/86/d/1666/PAW/gpaw-setups-0.9.20000/Al.LDA.gz
    compensation charges: {type: gauss,
                           rc: 0.34,
                           lmax: 2}
    cutoffs: {filter: 1.91,
              core: 2.36}
    valence states:
      #              energy  rcut
      - 3s(2.00)    -7.830   1.085
      - 3p(1.00)    -2.783   1.085
      -  s          19.382   1.085
      -  p          24.428   1.085
      -  d           0.000   1.085
  
    # Using partial waves for Al as LCAO basis

Reference energy: -19735.263922  # eV

Spin-paired calculation

Convergence criteria:
 Maximum [total energy] change in last 3 cyles: 0.0005 eV / valence electron
 Maximum integral of absolute [dens]ity change: 0.0001 electrons / valence electron
 Maximum integral of absolute [eigenst]ate change: 4e-08 eV^2 / valence electron
 Maximum number of scf [iter]ations: 333
 (Square brackets indicate name in SCF output, whereas a 'c' in
 the SCF output indicates the quantity has converged.)

Symmetries present (total): 16

  ( 1  0  0)  ( 1  0  0)  ( 1  0  0)  ( 1  0  0)  ( 0  1  0)  ( 0  1  0)
  ( 0  1  0)  ( 0  1  0)  ( 0 -1  0)  ( 0 -1  0)  ( 1  0  0)  ( 1  0  0)
  ( 0  0  1)  ( 0  0 -1)  ( 0  0  1)  ( 0  0 -1)  ( 0  0  1)  ( 0  0 -1)

  ( 0  1  0)  ( 0  1  0)  ( 0 -1  0)  ( 0 -1  0)  ( 0 -1  0)  ( 0 -1  0)
  (-1  0  0)  (-1  0  0)  ( 1  0  0)  ( 1  0  0)  (-1  0  0)  (-1  0  0)
  ( 0  0  1)  ( 0  0 -1)  ( 0  0  1)  ( 0  0 -1)  ( 0  0  1)  ( 0  0 -1)

  (-1  0  0)  (-1  0  0)  (-1  0  0)  (-1  0  0)
  ( 0  1  0)  ( 0  1  0)  ( 0 -1  0)  ( 0 -1  0)
  ( 0  0  1)  ( 0  0 -1)  ( 0  0  1)  ( 0  0 -1)

144 k-points: 12 x 12 x 1 Monkhorst-Pack grid
21 k-points in the irreducible part of the Brillouin zone
       k-points in crystal coordinates                weights
   0:     0.04166667    0.04166667    0.00000000          4/144
   1:     0.12500000    0.04166667    0.00000000          8/144
   2:     0.12500000    0.12500000    0.00000000          4/144
   3:     0.20833333    0.04166667    0.00000000          8/144
   4:     0.20833333    0.12500000    0.00000000          8/144
   5:     0.20833333    0.20833333    0.00000000          4/144
   6:     0.29166667    0.04166667    0.00000000          8/144
   7:     0.29166667    0.12500000    0.00000000          8/144
   8:     0.29166667    0.20833333    0.00000000          8/144
   9:     0.29166667    0.29166667    0.00000000          4/144
          ...
  20:     0.45833333    0.45833333    0.00000000          4/144

Wave functions: Uniform real-space grid
  Kinetic energy operator: 6*3+1=19 point O(h^6) finite-difference Laplacian
  ScaLapack parameters: grid=1x1, blocksize=None
  Wavefunction extrapolation:
    Improved wavefunction reuse through dual PAW basis 

Occupation numbers: Fermi-Dirac:
  width: 0.1000  # eV
 

Eigensolver
   Davidson(niter=2) 

Densities:
  Coarse grid: 12*12*76 grid
  Fine grid: 24*24*152 grid
  Total Charge: 0.000000 

Density mixing:
  Method: separate
  Backend: pulay
  Linear mixing parameter: 0.05
  old densities: 5
  Damping of long wavelength oscillations: 50 

Hamiltonian:
  XC and Coulomb potentials evaluated on a 24*24*152 grid
  Using the LDA Exchange-Correlation functional
  Interpolation: tri-quintic (5. degree polynomial)
  Poisson solver: FastPoissonSolver using
    Stencil: 6*3+1=19 point O(h^6) finite-difference Laplacian
    FFT axes: [0, 1]
    FST axes: [2]
 

Memory estimate:
  Process memory now: 96.20 MiB
  Calculator: 14.20 MiB
    Density: 8.01 MiB
      Arrays: 2.16 MiB
      Localized functions: 5.03 MiB
      Mixer: 0.82 MiB
    Hamiltonian: 1.78 MiB
      Arrays: 1.41 MiB
      XC: 0.00 MiB
      Poisson: 0.00 MiB
      vbar: 0.37 MiB
    Wavefunctions: 4.41 MiB
      Arrays psit_nG: 1.48 MiB
      Eigensolver: 2.32 MiB
      Projections: 0.01 MiB
      Projectors: 0.60 MiB

Total number of cores used: 12
Parallelization over k-points: 12

Number of atoms: 3
Number of atomic orbitals: 12
Number of bands in calculation: 9
Number of valence electrons: 9
Bands to converge: occupied

... initialized

Initializing position-dependent things.

Density initialized from atomic densities
Creating initial wave functions:
  9 bands from LCAO basis set

   .------.  
  /|      |  
 * |      |  
 | |      |  
 | |      |  
 | |      |  
 | |      |  
 | |      |  
 | |      |  
 | |      |  
 | |      |  
 Al|      |  
 | |      |  
 | | Al   |  
 | |      |  
 | |      |  
 Al|      |  
 | |      |  
 | |      |  
 | |      |  
 | |      |  
 | |      |  
 | |      |  
 | .------.  
 |/      /   
 *------*    

Positions:
   0 Al     0.000000    0.000000    7.500000    ( 0.0000,  0.0000,  0.0000)
   1 Al     1.431891    1.431891    9.525000    ( 0.0000,  0.0000,  0.0000)
   2 Al     0.000000    0.000000   11.550000    ( 0.0000,  0.0000,  0.0000)

Unit cell:
           periodic     x           y           z      points  spacing
  1. axis:    yes    2.863782    0.000000    0.000000    12     0.2386
  2. axis:    yes    0.000000    2.863782    0.000000    12     0.2386
  3. axis:    no     0.000000    0.000000   19.050000    76     0.2507

  Lengths:   2.863782   2.863782  19.050000
  Angles:   90.000000  90.000000  90.000000

Effective grid spacing dv^(1/3) = 0.2426

     iter     time        total  log10-change:
                         energy  eigst   dens
iter:   1 08:55:28   -11.445598
iter:   2 08:55:28   -11.467901  +0.02  -0.91
iter:   3 08:55:28   -11.403326  -0.30  -0.93
iter:   4 08:55:29   -11.435422  -0.73  -1.10
iter:   5 08:55:29   -11.398013  -0.77  -1.04
iter:   6 08:55:29   -11.405789  -1.08  -1.63
iter:   7 08:55:29   -11.389051  -1.38  -1.60
iter:   8 08:55:29   -11.387916  -2.18  -2.11
iter:   9 08:55:29   -11.387962c -2.90  -2.65
iter:  10 08:55:30   -11.387947c -3.33  -2.68
iter:  11 08:55:30   -11.388106c -3.29  -2.68
iter:  12 08:55:30   -11.387930c -3.56  -2.73
iter:  13 08:55:30   -11.387986c -4.02  -2.94
iter:  14 08:55:30   -11.387988c -4.60  -3.71
iter:  15 08:55:31   -11.387987c -5.08  -3.67
iter:  16 08:55:31   -11.387973c -5.34  -3.69
iter:  17 08:55:31   -11.387986c -5.52  -3.65
iter:  18 08:55:31   -11.387987c -5.89  -3.78
iter:  19 08:55:31   -11.387975c -5.93  -3.80
iter:  20 08:55:32   -11.387981c -6.26  -3.87
iter:  21 08:55:32   -11.387980c -6.44  -4.04c
iter:  22 08:55:32   -11.387980c -6.79  -4.79c
iter:  23 08:55:32   -11.387981c -7.11  -4.92c
iter:  24 08:55:32   -11.387980c -7.51c -4.92c

Converged after 24 iterations.

Dipole moment: (-1.240358, -1.240358, -0.000000) |e|*Ang

Energy contributions relative to reference atoms: (reference = -19735.263922)

Kinetic:         +7.707484
Potential:       -4.190182
External:        +0.000000
XC:             -14.872317
Entropy (-ST):   -0.037224
Local:           -0.014353
--------------------------
Free energy:    -11.406593
Extrapolated:   -11.387980

Showing only first 2 kpts
 Kpt  Band  Eigenvalues  Occupancy
  0     2     -9.24675    2.00000
  0     3     -6.24781    2.00000
  0     4     -2.45854    0.00000
  0     5     -0.55850    0.00000

  1     2     -9.00273    2.00000
  1     3     -6.01630    2.00000
  1     4     -2.27180    0.00000
  1     5     -1.79049    0.00000


Fermi level: -4.56991

No gap
Writing to slab_3.gpw (mode='')

Timing:                              incl.     excl.
-----------------------------------------------------------
Hamiltonian:                         0.056     0.000   0.0% |
 Atomic:                             0.013     0.013   0.2% |
  XC Correction:                     0.000     0.000   0.0% |
 Calculate atomic Hamiltonians:      0.002     0.002   0.0% |
 Communicate:                        0.000     0.000   0.0% |
 Hartree integrate/restrict:         0.002     0.002   0.0% |
 Initialize Hamiltonian:             0.000     0.000   0.0% |
 Poisson:                            0.021     0.001   0.0% |
  Communicate from 1D:               0.003     0.003   0.0% |
  Communicate from 2D:               0.002     0.002   0.0% |
  Communicate to 1D:                 0.002     0.002   0.0% |
  Communicate to 2D:                 0.004     0.004   0.1% |
  FFT 1D:                            0.005     0.005   0.1% |
  FFT 2D:                            0.005     0.005   0.1% |
 XC 3D grid:                         0.013     0.013   0.2% |
 vbar:                               0.004     0.004   0.1% |
LCAO initialization:                 0.123     0.019   0.4% |
 LCAO eigensolver:                   0.046     0.000   0.0% |
  Calculate projections:             0.000     0.000   0.0% |
  DenseAtomicCorrection:             0.000     0.000   0.0% |
  Distribute overlap matrix:         0.000     0.000   0.0% |
  Orbital Layouts:                   0.014     0.014   0.3% |
  Potential matrix:                  0.032     0.032   0.6% |
  Sum over cells:                    0.000     0.000   0.0% |
 LCAO to grid:                       0.004     0.004   0.1% |
 Set positions (LCAO WFS):           0.053     0.016   0.3% |
  Basic WFS set positions:           0.001     0.001   0.0% |
  Basis functions set positions:     0.000     0.000   0.0% |
  P tci:                             0.013     0.013   0.2% |
  ST tci:                            0.016     0.016   0.3% |
  mktci:                             0.007     0.007   0.1% |
SCF-cycle:                           4.362     1.459  27.1% |----------|
 Davidson:                           1.426     0.591  11.0% |---|
  Apply hamiltonian:                 0.105     0.105   1.9% ||
  Subspace diag:                     0.201     0.002   0.0% |
   calc_h_matrix:                    0.154     0.046   0.9% |
    Apply hamiltonian:               0.108     0.108   2.0% ||
   diagonalize:                      0.005     0.005   0.1% |
   rotate_psi:                       0.039     0.039   0.7% |
  calc. matrices:                    0.450     0.242   4.5% |-|
   Apply hamiltonian:                0.208     0.208   3.9% |-|
  diagonalize:                       0.012     0.012   0.2% |
  rotate_psi:                        0.068     0.068   1.3% ||
 Density:                            0.372     0.001   0.0% |
  Atomic density matrices:           0.026     0.026   0.5% |
  Mix:                               0.088     0.088   1.6% ||
  Multipole moments:                 0.003     0.003   0.1% |
  Pseudo density:                    0.254     0.019   0.3% |
   Symmetrize density:               0.236     0.236   4.4% |-|
 Hamiltonian:                        1.099     0.002   0.0% |
  Atomic:                            0.310     0.310   5.8% |-|
   XC Correction:                    0.000     0.000   0.0% |
  Calculate atomic Hamiltonians:     0.042     0.042   0.8% |
  Communicate:                       0.003     0.003   0.1% |
  Hartree integrate/restrict:        0.048     0.048   0.9% |
  Poisson:                           0.392     0.018   0.3% |
   Communicate from 1D:              0.044     0.044   0.8% |
   Communicate from 2D:              0.034     0.034   0.6% |
   Communicate to 1D:                0.027     0.027   0.5% |
   Communicate to 2D:                0.051     0.051   0.9% |
   FFT 1D:                           0.124     0.124   2.3% ||
   FFT 2D:                           0.095     0.095   1.8% ||
  XC 3D grid:                        0.293     0.293   5.4% |-|
  vbar:                              0.010     0.010   0.2% |
 Orthonormalize:                     0.005     0.000   0.0% |
  calc_s_matrix:                     0.001     0.001   0.0% |
  inverse-cholesky:                  0.000     0.000   0.0% |
  projections:                       0.003     0.003   0.0% |
  rotate_psi_s:                      0.001     0.001   0.0% |
Set symmetry:                        0.010     0.010   0.2% |
Other:                               0.827     0.827  15.4% |-----|
-----------------------------------------------------------
Total:                                         5.377 100.0%

Memory usage: 118.77 MiB
Date: Wed Feb 22 08:55:32 2023
