
  ___ ___ ___ _ _ _  
 |   |   |_  | | | | 
 | | | | | . | | | | 
 |__ |  _|___|_____|  22.8.1b1
 |___|_|             

User:   s183553@n-62-28-30
Date:   Wed Feb 22 08:55:32 2023
Arch:   x86_64
Pid:    22729
CWD:    /zhome/06/4/136859/dft_course/CX3
Python: 3.8.5
gpaw:   /zhome/06/4/136859/dft_venv/gpaw/gpaw (3d6f5cf366)
_gpaw:  /zhome/06/4/136859/dft_venv/gpaw/
        _gpaw.cpython-38-x86_64-linux-gnu.so (3d6f5cf366)
ase:    /zhome/06/4/136859/dft_venv/ase/ase (version 3.23.0b1-d4570ca33a)
numpy:  /zhome/06/4/136859/dft_venv/lib/python3.8/site-packages/numpy (version 1.24.1)
scipy:  /zhome/06/4/136859/dft_venv/lib/python3.8/site-packages/scipy (version 1.10.0)
libxc:  4.3.4
units:  Angstrom and eV
cores: 12
OpenMP: False
OMP_NUM_THREADS: 1

Input parameters:
  h: 0.25
  kpts: [12 12  1]
  nbands: 12

System changes: positions, numbers, cell, pbc, initial_charges, initial_magmoms 

Initialize ...

species:
  Al:
    name: Aluminium
    id: 2e6447feaea722efcff26bf034b25f30
    Z: 13.0
    valence: 3
    core: 10
    charge: 0.0
    file: /zhome/86/d/1666/PAW/gpaw-setups-0.9.20000/Al.LDA.gz
    compensation charges: {type: gauss,
                           rc: 0.34,
                           lmax: 2}
    cutoffs: {filter: 1.91,
              core: 2.36}
    valence states:
      #              energy  rcut
      - 3s(2.00)    -7.830   1.085
      - 3p(1.00)    -2.783   1.085
      -  s          19.382   1.085
      -  p          24.428   1.085
      -  d           0.000   1.085
  
    # Using partial waves for Al as LCAO basis

Reference energy: -26313.685229  # eV

Spin-paired calculation

Convergence criteria:
 Maximum [total energy] change in last 3 cyles: 0.0005 eV / valence electron
 Maximum integral of absolute [dens]ity change: 0.0001 electrons / valence electron
 Maximum integral of absolute [eigenst]ate change: 4e-08 eV^2 / valence electron
 Maximum number of scf [iter]ations: 333
 (Square brackets indicate name in SCF output, whereas a 'c' in
 the SCF output indicates the quantity has converged.)

Symmetries present (total): 8

  ( 1  0  0)  ( 1  0  0)  ( 0  1  0)  ( 0  1  0)  ( 0 -1  0)  ( 0 -1  0)
  ( 0  1  0)  ( 0 -1  0)  ( 1  0  0)  (-1  0  0)  ( 1  0  0)  (-1  0  0)
  ( 0  0  1)  ( 0  0  1)  ( 0  0  1)  ( 0  0  1)  ( 0  0  1)  ( 0  0  1)

  (-1  0  0)  (-1  0  0)
  ( 0  1  0)  ( 0 -1  0)
  ( 0  0  1)  ( 0  0  1)

144 k-points: 12 x 12 x 1 Monkhorst-Pack grid
21 k-points in the irreducible part of the Brillouin zone
       k-points in crystal coordinates                weights
   0:     0.04166667    0.04166667    0.00000000          4/144
   1:     0.12500000    0.04166667    0.00000000          8/144
   2:     0.12500000    0.12500000    0.00000000          4/144
   3:     0.20833333    0.04166667    0.00000000          8/144
   4:     0.20833333    0.12500000    0.00000000          8/144
   5:     0.20833333    0.20833333    0.00000000          4/144
   6:     0.29166667    0.04166667    0.00000000          8/144
   7:     0.29166667    0.12500000    0.00000000          8/144
   8:     0.29166667    0.20833333    0.00000000          8/144
   9:     0.29166667    0.29166667    0.00000000          4/144
          ...
  20:     0.45833333    0.45833333    0.00000000          4/144

Wave functions: Uniform real-space grid
  Kinetic energy operator: 6*3+1=19 point O(h^6) finite-difference Laplacian
  ScaLapack parameters: grid=1x1, blocksize=None
  Wavefunction extrapolation:
    Improved wavefunction reuse through dual PAW basis 

Occupation numbers: Fermi-Dirac:
  width: 0.1000  # eV
 

Eigensolver
   Davidson(niter=2) 

Densities:
  Coarse grid: 12*12*84 grid
  Fine grid: 24*24*168 grid
  Total Charge: 0.000000 

Density mixing:
  Method: separate
  Backend: pulay
  Linear mixing parameter: 0.05
  old densities: 5
  Damping of long wavelength oscillations: 50 

Hamiltonian:
  XC and Coulomb potentials evaluated on a 24*24*168 grid
  Using the LDA Exchange-Correlation functional
  Interpolation: tri-quintic (5. degree polynomial)
  Poisson solver: FastPoissonSolver using
    Stencil: 6*3+1=19 point O(h^6) finite-difference Laplacian
    FFT axes: [0, 1]
    FST axes: [2]
 

Memory estimate:
  Process memory now: 118.77 MiB
  Calculator: 18.17 MiB
    Density: 9.99 MiB
      Arrays: 2.38 MiB
      Localized functions: 6.70 MiB
      Mixer: 0.91 MiB
    Hamiltonian: 2.05 MiB
      Arrays: 1.56 MiB
      XC: 0.00 MiB
      Poisson: 0.00 MiB
      vbar: 0.49 MiB
    Wavefunctions: 6.12 MiB
      Arrays psit_nG: 2.19 MiB
      Eigensolver: 3.12 MiB
      Projections: 0.01 MiB
      Projectors: 0.80 MiB

Total number of cores used: 12
Parallelization over k-points: 12

Number of atoms: 4
Number of atomic orbitals: 16
Number of bands in calculation: 12
Number of valence electrons: 12
Bands to converge: occupied

... initialized

Initializing position-dependent things.

Density initialized from atomic densities
Creating initial wave functions:
  12 bands from LCAO basis set

   .------.  
  /|      |  
 * |      |  
 | |      |  
 | |      |  
 | |      |  
 | |      |  
 | |      |  
 | |      |  
 | |      |  
 | |      |  
 Al|      |  
 | |      |  
 | | Al   |  
 | |      |  
 | |      |  
 Al|      |  
 | |      |  
 | | Al   |  
 | |      |  
 | |      |  
 | |      |  
 | |      |  
 | |      |  
 | |      |  
 | |      |  
 | .------.  
 |/      /   
 *------*    

Positions:
   0 Al     1.431891    1.431891    7.500000    ( 0.0000,  0.0000,  0.0000)
   1 Al     0.000000    0.000000    9.525000    ( 0.0000,  0.0000,  0.0000)
   2 Al     1.431891    1.431891   11.550000    ( 0.0000,  0.0000,  0.0000)
   3 Al     0.000000    0.000000   13.575000    ( 0.0000,  0.0000,  0.0000)

Unit cell:
           periodic     x           y           z      points  spacing
  1. axis:    yes    2.863782    0.000000    0.000000    12     0.2386
  2. axis:    yes    0.000000    2.863782    0.000000    12     0.2386
  3. axis:    no     0.000000    0.000000   21.075000    84     0.2509

  Lengths:   2.863782   2.863782  21.075000
  Angles:   90.000000  90.000000  90.000000

Effective grid spacing dv^(1/3) = 0.2427

     iter     time        total  log10-change:
                         energy  eigst   dens
iter:   1 08:55:33   -15.574576
iter:   2 08:55:33   -15.576923  +0.02  -0.90
iter:   3 08:55:33   -15.536484  -0.50  -0.93
iter:   4 08:55:34   -15.500699  -0.69  -1.01
iter:   5 08:55:34   -15.550813  -0.65  -1.28
iter:   6 08:55:34   -15.507515  -0.97  -1.42
iter:   7 08:55:34   -15.499300  -1.90  -1.84
iter:   8 08:55:35   -15.499414  -2.63  -2.41
iter:   9 08:55:35   -15.499514c -3.11  -2.44
iter:  10 08:55:35   -15.499617c -3.09  -2.47
iter:  11 08:55:35   -15.499424c -3.34  -2.60
iter:  12 08:55:36   -15.499430c -4.04  -3.17
iter:  13 08:55:36   -15.499433c -4.46  -3.18
iter:  14 08:55:36   -15.499434c -4.88  -3.19
iter:  15 08:55:36   -15.499429c -4.92  -3.22
iter:  16 08:55:37   -15.499427c -5.32  -3.73
iter:  17 08:55:37   -15.499426c -5.79  -3.82
iter:  18 08:55:37   -15.499424c -5.99  -3.86
iter:  19 08:55:38   -15.499424c -6.26  -3.98
iter:  20 08:55:38   -15.499425c -6.62  -4.16c
iter:  21 08:55:38   -15.499425c -6.90  -4.26c
iter:  22 08:55:38   -15.499425c -7.04  -4.39c
iter:  23 08:55:39   -15.499425c -7.46c -4.61c

Converged after 23 iterations.

Dipole moment: (-1.104124, -1.104124, 0.000006) |e|*Ang

Energy contributions relative to reference atoms: (reference = -26313.685229)

Kinetic:        +11.578978
Potential:       -6.121858
External:        +0.000000
XC:             -20.902830
Entropy (-ST):   -0.064659
Local:           -0.021384
--------------------------
Free energy:    -15.531754
Extrapolated:   -15.499425

Showing only first 2 kpts
 Kpt  Band  Eigenvalues  Occupancy
  0     4     -6.36547    2.00000
  0     5     -2.97113    0.00000
  0     6     -0.91426    0.00000
  0     7     -0.02591    0.00000

  1     4     -6.13418    2.00000
  1     5     -2.76186    0.00000
  1     6     -2.01397    0.00000
  1     7     -0.80323    0.00000


Fermi level: -4.50058

No gap
Writing to slab_4.gpw (mode='')

Timing:                              incl.     excl.
-----------------------------------------------------------
Hamiltonian:                         0.055     0.000   0.0% |
 Atomic:                             0.013     0.013   0.2% |
  XC Correction:                     0.000     0.000   0.0% |
 Calculate atomic Hamiltonians:      0.002     0.002   0.0% |
 Communicate:                        0.000     0.000   0.0% |
 Hartree integrate/restrict:         0.002     0.002   0.0% |
 Initialize Hamiltonian:             0.000     0.000   0.0% |
 Poisson:                            0.022     0.001   0.0% |
  Communicate from 1D:               0.003     0.003   0.0% |
  Communicate from 2D:               0.001     0.001   0.0% |
  Communicate to 1D:                 0.002     0.002   0.0% |
  Communicate to 2D:                 0.004     0.004   0.1% |
  FFT 1D:                            0.005     0.005   0.1% |
  FFT 2D:                            0.005     0.005   0.1% |
 XC 3D grid:                         0.014     0.014   0.2% |
 vbar:                               0.000     0.000   0.0% |
LCAO initialization:                 0.144     0.019   0.3% |
 LCAO eigensolver:                   0.051     0.000   0.0% |
  Calculate projections:             0.000     0.000   0.0% |
  DenseAtomicCorrection:             0.000     0.000   0.0% |
  Distribute overlap matrix:         0.000     0.000   0.0% |
  Orbital Layouts:                   0.000     0.000   0.0% |
  Potential matrix:                  0.050     0.050   0.8% |
  Sum over cells:                    0.000     0.000   0.0% |
 LCAO to grid:                       0.005     0.005   0.1% |
 Set positions (LCAO WFS):           0.069     0.016   0.3% |
  Basic WFS set positions:           0.001     0.001   0.0% |
  Basis functions set positions:     0.000     0.000   0.0% |
  P tci:                             0.019     0.019   0.3% |
  ST tci:                            0.024     0.024   0.4% |
  mktci:                             0.009     0.009   0.1% |
SCF-cycle:                           5.764     2.239  35.7% |-------------|
 Davidson:                           2.103     0.926  14.8% |-----|
  Apply hamiltonian:                 0.149     0.149   2.4% ||
  Subspace diag:                     0.275     0.002   0.0% |
   calc_h_matrix:                    0.215     0.066   1.1% |
    Apply hamiltonian:               0.149     0.149   2.4% ||
   diagonalize:                      0.005     0.005   0.1% |
   rotate_psi:                       0.053     0.053   0.8% |
  calc. matrices:                    0.649     0.354   5.7% |-|
   Apply hamiltonian:                0.295     0.295   4.7% |-|
  diagonalize:                       0.016     0.016   0.3% |
  rotate_psi:                        0.088     0.088   1.4% ||
 Density:                            0.280     0.000   0.0% |
  Atomic density matrices:           0.024     0.024   0.4% |
  Mix:                               0.101     0.101   1.6% ||
  Multipole moments:                 0.003     0.003   0.1% |
  Pseudo density:                    0.152     0.025   0.4% |
   Symmetrize density:               0.126     0.126   2.0% ||
 Hamiltonian:                        1.135     0.002   0.0% |
  Atomic:                            0.298     0.297   4.7% |-|
   XC Correction:                    0.000     0.000   0.0% |
  Calculate atomic Hamiltonians:     0.051     0.051   0.8% |
  Communicate:                       0.002     0.002   0.0% |
  Hartree integrate/restrict:        0.050     0.050   0.8% |
  Poisson:                           0.407     0.018   0.3% |
   Communicate from 1D:              0.047     0.047   0.8% |
   Communicate from 2D:              0.037     0.037   0.6% |
   Communicate to 1D:                0.027     0.027   0.4% |
   Communicate to 2D:                0.054     0.054   0.9% |
   FFT 1D:                           0.118     0.118   1.9% ||
   FFT 2D:                           0.105     0.105   1.7% ||
  XC 3D grid:                        0.313     0.313   5.0% |-|
  vbar:                              0.011     0.011   0.2% |
 Orthonormalize:                     0.008     0.000   0.0% |
  calc_s_matrix:                     0.002     0.002   0.0% |
  inverse-cholesky:                  0.000     0.000   0.0% |
  projections:                       0.005     0.005   0.1% |
  rotate_psi_s:                      0.001     0.001   0.0% |
Set symmetry:                        0.010     0.010   0.2% |
Other:                               0.293     0.293   4.7% |-|
-----------------------------------------------------------
Total:                                         6.266 100.0%

Memory usage: 127.02 MiB
Date: Wed Feb 22 08:55:39 2023
