venv: /zhome/06/4/136859/dft_venv/bin/activate
[1678800043.458138] [n-62-28-26:23425:0]          ib_md.c:1063 UCX  WARN  IB: ibv_fork_init() was disabled or failed, yet a fork() has been issued.
[1678800043.458171] [n-62-28-26:23425:0]          ib_md.c:1064 UCX  WARN  IB: data corruption might occur when using registered memory.

  ___ ___ ___ _ _ _  
 |   |   |_  | | | | 
 | | | | | . | | | | 
 |__ |  _|___|_____|  22.8.1b1
 |___|_|             

User:   s183553@n-62-28-26
Date:   Tue Mar 14 14:20:43 2023
Arch:   x86_64
Pid:    23425
CWD:    /zhome/06/4/136859/dft_course/CX5
Python: 3.8.5
gpaw:   /zhome/06/4/136859/dft_venv/gpaw/gpaw (3d6f5cf366)
_gpaw:  /zhome/06/4/136859/dft_venv/gpaw/
        _gpaw.cpython-38-x86_64-linux-gnu.so (3d6f5cf366)
ase:    /zhome/06/4/136859/dft_venv/ase/ase (version 3.23.0b1-d4570ca33a)
numpy:  /zhome/06/4/136859/dft_venv/lib/python3.8/site-packages/numpy (version 1.24.1)
scipy:  /zhome/06/4/136859/dft_venv/lib/python3.8/site-packages/scipy (version 1.10.0)
libxc:  4.3.4
units:  Angstrom and eV
cores: 12
OpenMP: False
OMP_NUM_THREADS: 1

Input parameters:
  experimental: {magmoms: [[0. 0. 0.]
 [0. 0. 0.]],
                 soc: True}
  kpts: [8 8 8]
  mode: {ecut: 400.0,
         name: pw}
  occupations: {fixmagmom: False,
                name: fermi-dirac,
                width: 0.01}
  symmetry: off

System changes: positions, numbers, cell, pbc, initial_charges, initial_magmoms 

Initialize ...

[1678800044.005756] [n-62-28-26:23436:0]          ib_md.c:1063 UCX  WARN  IB: ibv_fork_init() was disabled or failed, yet a fork() has been issued.
[1678800044.005855] [n-62-28-26:23436:0]          ib_md.c:1064 UCX  WARN  IB: data corruption might occur when using registered memory.
[1678800044.006507] [n-62-28-26:23429:0]          ib_md.c:1063 UCX  WARN  IB: ibv_fork_init() was disabled or failed, yet a fork() has been issued.
[1678800044.006539] [n-62-28-26:23429:0]          ib_md.c:1064 UCX  WARN  IB: data corruption might occur when using registered memory.
[1678800044.006497] [n-62-28-26:23431:0]          ib_md.c:1063 UCX  WARN  IB: ibv_fork_init() was disabled or failed, yet a fork() has been issued.
[1678800044.006537] [n-62-28-26:23431:0]          ib_md.c:1064 UCX  WARN  IB: data corruption might occur when using registered memory.
[1678800044.006565] [n-62-28-26:23426:0]          ib_md.c:1063 UCX  WARN  IB: ibv_fork_init() was disabled or failed, yet a fork() has been issued.
[1678800044.006599] [n-62-28-26:23426:0]          ib_md.c:1064 UCX  WARN  IB: data corruption might occur when using registered memory.
[1678800044.006755] [n-62-28-26:23434:0]          ib_md.c:1063 UCX  WARN  IB: ibv_fork_init() was disabled or failed, yet a fork() has been issued.
[1678800044.006795] [n-62-28-26:23434:0]          ib_md.c:1064 UCX  WARN  IB: data corruption might occur when using registered memory.
[1678800044.007122] [n-62-28-26:23428:0]          ib_md.c:1063 UCX  WARN  IB: ibv_fork_init() was disabled or failed, yet a fork() has been issued.
[1678800044.007155] [n-62-28-26:23428:0]          ib_md.c:1064 UCX  WARN  IB: data corruption might occur when using registered memory.
[1678800044.007211] [n-62-28-26:23433:0]          ib_md.c:1063 UCX  WARN  IB: ibv_fork_init() was disabled or failed, yet a fork() has been issued.
[1678800044.007245] [n-62-28-26:23433:0]          ib_md.c:1064 UCX  WARN  IB: data corruption might occur when using registered memory.
[1678800044.008180] [n-62-28-26:23430:0]          ib_md.c:1063 UCX  WARN  IB: ibv_fork_init() was disabled or failed, yet a fork() has been issued.
[1678800044.008214] [n-62-28-26:23430:0]          ib_md.c:1064 UCX  WARN  IB: data corruption might occur when using registered memory.
[1678800044.008344] [n-62-28-26:23432:0]          ib_md.c:1063 UCX  WARN  IB: ibv_fork_init() was disabled or failed, yet a fork() has been issued.
[1678800044.008382] [n-62-28-26:23432:0]          ib_md.c:1064 UCX  WARN  IB: data corruption might occur when using registered memory.
[1678800044.009087] [n-62-28-26:23427:0]          ib_md.c:1063 UCX  WARN  IB: ibv_fork_init() was disabled or failed, yet a fork() has been issued.
[1678800044.009123] [n-62-28-26:23427:0]          ib_md.c:1064 UCX  WARN  IB: data corruption might occur when using registered memory.
[1678800044.011896] [n-62-28-26:23435:0]          ib_md.c:1063 UCX  WARN  IB: ibv_fork_init() was disabled or failed, yet a fork() has been issued.
[1678800044.011930] [n-62-28-26:23435:0]          ib_md.c:1064 UCX  WARN  IB: data corruption might occur when using registered memory.
species:
  Si:
    name: Silicon
    id: b152d83ba7c91a8f3191da15c74e1ae7
    Z: 14.0
    valence: 4
    core: 10
    charge: 0.0
    file: /zhome/86/d/1666/PAW/gpaw-setups-0.9.20000/Si.LDA.gz
    compensation charges: {type: gauss,
                           rc: 0.33,
                           lmax: 2}
    cutoffs: {filter: 1.86,
              core: 2.06}
    valence states:
      #              energy  rcut
      - 3s(2.00)   -10.878   1.058
      - 3p(2.00)    -4.162   1.058
      -  s          16.334   1.058
      -  p          23.049   1.058
      -  d           0.000   1.058
  
    # Using partial waves for Si as LCAO basis

Reference energy: -15717.426366  # eV

Non-collinear calculation.
Magnetic moment: (0.000000, 0.000000, 0.000000)

Convergence criteria:
 Maximum [total energy] change in last 3 cyles: 0.0005 eV / valence electron
 Maximum integral of absolute [dens]ity change: 0.0001 electrons / valence electron
 Maximum integral of absolute [eigenst]ate change: 4e-08 eV^2 / valence electron
 Maximum number of scf [iter]ations: 333
 (Square brackets indicate name in SCF output, whereas a 'c' in
 the SCF output indicates the quantity has converged.)

Symmetries present (total): 1

  ( 1  0  0)
  ( 0  1  0)
  ( 0  0  1)

512 k-points: 8 x 8 x 8 Monkhorst-Pack grid
512 k-points in the irreducible part of the Brillouin zone
       k-points in crystal coordinates                weights
   0:    -0.43750000   -0.43750000   -0.43750000          1/512
   1:    -0.43750000   -0.43750000   -0.31250000          1/512
   2:    -0.43750000   -0.43750000   -0.18750000          1/512
   3:    -0.43750000   -0.43750000   -0.06250000          1/512
   4:    -0.43750000   -0.43750000    0.06250000          1/512
   5:    -0.43750000   -0.43750000    0.18750000          1/512
   6:    -0.43750000   -0.43750000    0.31250000          1/512
   7:    -0.43750000   -0.43750000    0.43750000          1/512
   8:    -0.43750000   -0.31250000   -0.43750000          1/512
   9:    -0.43750000   -0.31250000   -0.31250000          1/512
          ...
 511:     0.43750000    0.43750000    0.43750000          1/512

Wave functions: Plane wave expansion
  Cutoff energy: 400.000 eV
  Number of coefficients (min, max): 717, 745
  Pulay-stress correction: 0.000000 eV/Ang^3 (de/decut=0.000000)
  Using FFTW library
  ScaLapack parameters: grid=1x1, blocksize=None
  Wavefunction extrapolation:
    Improved wavefunction reuse through dual PAW basis 

Occupation numbers: Fermi-Dirac:
  width: 0.0100  # eV
 

Eigensolver
   Davidson(niter=2) 

Densities:
  Coarse grid: 18*18*18 grid
  Fine grid: 36*36*36 grid
  Total Charge: 0.000000 

Density mixing:
  Method: difference
  Backend: pulay
  Linear mixing parameter: 0.05
  old densities: 5
  Damping of long wavelength oscillations: 50 

Hamiltonian:
  XC and Coulomb potentials evaluated on a 36*36*36 grid
  Using the LDA Exchange-Correlation functional
  External potential:
    NoExternalPotential
 

Memory estimate:
  Process memory now: 90.73 MiB
  Calculator: 15.82 MiB
    Density: 2.91 MiB
      Arrays: 1.16 MiB
      Localized functions: 0.77 MiB
      Mixer: 0.98 MiB
    Hamiltonian: 0.77 MiB
      Arrays: 0.76 MiB
      XC: 0.00 MiB
      Poisson: 0.00 MiB
      vbar: 0.02 MiB
    Wavefunctions: 12.15 MiB
      Arrays psit_nG: 7.64 MiB
      Eigensolver: 0.28 MiB
      Projections: 0.27 MiB
      Projectors: 3.26 MiB
      PW-descriptor: 0.70 MiB

Total number of cores used: 12
Parallelization over k-points: 12

Number of atoms: 2
Number of atomic orbitals: 8
Number of bands in calculation: 16
Number of valence electrons: 8
Bands to converge: occupied

... initialized

Initializing position-dependent things.

Density initialized from atomic densities
Creating initial wave functions:
  8 bands from LCAO basis set
  8 bands from random numbers

                    
                    
                    
                    
           Si       
                    
       Si           
                    
                    
                    
                    

Positions:
   0 Si     0.000000    0.000000    0.000000    ( 0.0000,  0.0000,  0.0000)
   1 Si     1.357500    1.357500    1.357500    ( 0.0000,  0.0000,  0.0000)

Unit cell:
           periodic     x           y           z      points  spacing
  1. axis:    yes    0.000000    2.715000    2.715000    18     0.1742
  2. axis:    yes    2.715000    0.000000    2.715000    18     0.1742
  3. axis:    yes    2.715000    2.715000    0.000000    18     0.1742

  Lengths:   3.839590   3.839590   3.839590
  Angles:   60.000000  60.000000  60.000000

Effective grid spacing dv^(1/3) = 0.1900

     iter     time        total  log10-change:
                         energy  eigst   dens
iter:   1 14:20:48   -12.053849                 +0.0,+0.0,+0.0
iter:   2 14:20:51   -12.045834  -1.93  -0.80   +0.0,+0.0,-0.0
iter:   3 14:20:53   -12.454428  -1.06  -0.80   +0.0,+0.0,-0.0
iter:   4 14:20:56   -11.956043  -1.99  -0.65   +0.0,+0.0,-0.0
iter:   5 14:20:58   -11.923873  -3.03  -1.17   -0.0,+0.0,+0.0
iter:   6 14:21:01   -11.885507  -2.51  -1.29   -0.0,+0.0,+0.0
iter:   7 14:21:03   -11.885237  -4.41  -2.41   -0.0,+0.0,+0.0
iter:   8 14:21:06   -11.885270c -5.01  -2.92   +0.0,+0.0,+0.0
iter:   9 14:21:08   -11.885243c -6.29  -2.85   +0.0,+0.0,+0.0
iter:  10 14:21:10   -11.885236c -6.56  -3.15   +0.0,+0.0,+0.0
iter:  11 14:21:13   -11.885236c -8.33c -3.70   +0.0,+0.0,+0.0
iter:  12 14:21:15   -11.885235c -7.63c -3.74   +0.0,+0.0,+0.0
iter:  13 14:21:18   -11.885235c -8.99c -4.81c  +0.0,+0.0,+0.0

Converged after 13 iterations.

Dipole moment: (-2.924556, -2.924556, -2.924556) |e|*Ang

Total magnetic moment: (0.000000, 0.000000, 0.000000)
Local magnetic moments:
   0 Si ( 0.000000, -0.000000,  0.000000)
   1 Si ( 0.000000, -0.000000,  0.000000)

Energy contributions relative to reference atoms: (reference = -15717.426366)

Kinetic:        +15.560492
Potential:      -13.719964
External:        +0.000000
XC:             -13.705445
Entropy (-ST):   -0.000000
Local:           -0.020318
--------------------------
Free energy:    -11.885235
Extrapolated:   -11.885235

Showing only first 2 kpts
 Kpt  Band  Eigenvalues  Occupancy
  0     2     -1.55980    1.00000
  0     3     -1.55980    1.00000
  0     4      3.95398    1.00000
  0     5      3.95398    1.00000

  1     2     -1.03192    1.00000
  1     3     -1.03192    1.00000
  1     4      3.03650    1.00000
  1     5      3.03650    1.00000


Fermi level: 5.56216

Gap: 0.698 eV
Transition (v -> c):
  (s=0, k=292, n=7, [0.06, 0.06, 0.06]) -> (s=0, k=256, n=8, [0.06, -0.44, -0.44])

  ___ ___ ___ _ _ _  
 |   |   |_  | | | | 
 | | | | | . | | | | 
 |__ |  _|___|_____|  22.8.1b1
 |___|_|             

User:   s183553@n-62-28-26
Date:   Tue Mar 14 14:21:19 2023
Arch:   x86_64
Pid:    23425
CWD:    /zhome/06/4/136859/dft_course/CX5
Python: 3.8.5
gpaw:   /zhome/06/4/136859/dft_venv/gpaw/gpaw (3d6f5cf366)
_gpaw:  /zhome/06/4/136859/dft_venv/gpaw/
        _gpaw.cpython-38-x86_64-linux-gnu.so (3d6f5cf366)
ase:    /zhome/06/4/136859/dft_venv/ase/ase (version 3.23.0b1-d4570ca33a)
numpy:  /zhome/06/4/136859/dft_venv/lib/python3.8/site-packages/numpy (version 1.24.1)
scipy:  /zhome/06/4/136859/dft_venv/lib/python3.8/site-packages/scipy (version 1.10.0)
libxc:  4.3.4
units:  Angstrom and eV
cores: 12
OpenMP: False
OMP_NUM_THREADS: 1

Input parameters:
  basis: dzp
  convergence: {bands: 8}
  experimental: {magmoms: [[0. 0. 0.]
 [0. 0. 0.]],
                 soc: True}
  gpts: [18 18 18]
  kpts: {cell: Cell([[0.0, 2.7150000000000003, 2.7150000000000003], [2.7150000000000003, 0.0, 2.7150000000000003], [2.7150000000000003, 2.7150000000000003, 0.0]]),
         kpts: [[0.5        0.5        0.5       ]
 [0.48888889 0.48888889 0.48888889]
 [0.47777778 0.47777778 0.47777778]
 ...
 [0.48148148 0.         0.48148148]
 [0.49074074 0.         0.49074074]
 [0.5        0.         0.5       ]],
         labelseq: LGX,
         special_points: {'G': array([0., 0., 0.]), 'K': array([0.375, 0.375, 0.75 ]), 'L': array([0.5, 0.5, 0.5]), 'U': array([0.625, 0.25 , 0.625]), 'W': array([0.5 , 0.25, 0.75]), 'X': array([0.5, 0. , 0.5])}}
  mode: {ecut: 400.0,
         name: pw}
  nbands: 16
  occupations: {name: fermi-dirac,
                width: 0.01}
  symmetry: off

Initialize ...

species:
  Si:
    name: Silicon
    id: b152d83ba7c91a8f3191da15c74e1ae7
    Z: 14.0
    valence: 4
    core: 10
    charge: 0.0
    file: /zhome/86/d/1666/PAW/gpaw-setups-0.9.20000/Si.LDA.gz
    compensation charges: {type: gauss,
                           rc: 0.33,
                           lmax: 2}
    cutoffs: {filter: 1.86,
              core: 2.06}
    valence states:
      #              energy  rcut
      - 3s(2.00)   -10.878   1.058
      - 3p(2.00)    -4.162   1.058
      -  s          16.334   1.058
      -  p          23.049   1.058
      -  d           0.000   1.058
  
    # LCAO basis set for Si:
    #   Name: dzp
    #   File: /zhome/86/d/1666/PAW/gpaw-setups-0.9.20000/Si.dzp.basis.gz
    #   Number of radial functions: 5
    #   Number of spherical harmonics: 13
    #     l=0, rc=6.8594 Bohr: 3s-sz confined orbital
    #     l=1, rc=9.0625 Bohr: 3p-sz confined orbital
    #     l=0, rc=3.8906 Bohr: 3s-dz split-valence wave
    #     l=1, rc=5.2344 Bohr: 3p-dz split-valence wave
    #     l=2, rc=9.0625 Bohr: d-type Gaussian polarization
    #   Number of RI-basis functions 0

Reference energy: -15717.426366  # eV

Non-collinear calculation.
Magnetic moment: (0.000000, 0.000000, 0.000000)

Convergence criteria:
 Maximum [total energy] change in last 3 cyles: 0.0005 eV / valence electron
 Maximum integral of absolute [dens]ity change: 0.0001 electrons / valence electron
 Maximum integral of absolute [eigenst]ate change: 4e-08 eV^2 / valence electron
 Maximum number of scf [iter]ations: 333
 (Square brackets indicate name in SCF output, whereas a 'c' in
 the SCF output indicates the quantity has converged.)

Symmetries present (total): 1

  ( 1  0  0)
  ( 0  1  0)
  ( 0  0  1)

100 k-points
100 k-points in the irreducible part of the Brillouin zone
       k-points in crystal coordinates                weights
   0:     0.50000000    0.50000000    0.50000000       0.01000000
   1:     0.48888889    0.48888889    0.48888889       0.01000000
   2:     0.47777778    0.47777778    0.47777778       0.01000000
   3:     0.46666667    0.46666667    0.46666667       0.01000000
   4:     0.45555556    0.45555556    0.45555556       0.01000000
   5:     0.44444444    0.44444444    0.44444444       0.01000000
   6:     0.43333333    0.43333333    0.43333333       0.01000000
   7:     0.42222222    0.42222222    0.42222222       0.01000000
   8:     0.41111111    0.41111111    0.41111111       0.01000000
   9:     0.40000000    0.40000000    0.40000000       0.01000000
          ...
  99:     0.50000000    0.00000000    0.50000000       0.01000000

Wave functions: Plane wave expansion
  Cutoff energy: 400.000 eV
  Number of coefficients (min, max): 709, 748
  Pulay-stress correction: 0.000000 eV/Ang^3 (de/decut=0.000000)
  Using FFTW library
  ScaLapack parameters: grid=1x1, blocksize=None
  Wavefunction extrapolation:
    Improved wavefunction reuse through dual PAW basis 

Occupation numbers: Fermi-Dirac:
  width: 0.0100  # eV
 

Eigensolver
   Davidson(niter=2) 

Densities:
  Coarse grid: 18*18*18 grid
  Fine grid: 36*36*36 grid
  Total Charge: 0.000000 

Density mixing:
  Method: difference
  Backend: pulay
  Linear mixing parameter: 0.05
  old densities: 5
  Damping of long wavelength oscillations: 50 

Hamiltonian:
  XC and Coulomb potentials evaluated on a 36*36*36 grid
  Using the LDA Exchange-Correlation functional
  External potential:
    NoExternalPotential
 

Memory estimate:
  Process memory now: 149.51 MiB
  Calculator: 8.22 MiB
    Density: 2.91 MiB
      Arrays: 1.16 MiB
      Localized functions: 0.77 MiB
      Mixer: 0.98 MiB
    Hamiltonian: 0.77 MiB
      Arrays: 0.76 MiB
      XC: 0.00 MiB
      Poisson: 0.00 MiB
      vbar: 0.02 MiB
    Wavefunctions: 4.54 MiB
      Arrays psit_nG: 2.92 MiB
      Eigensolver: 0.58 MiB
      Projections: 0.10 MiB
      Projectors: 0.62 MiB
      PW-descriptor: 0.31 MiB

Total number of cores used: 12
Parallelization over k-points: 12

Number of atoms: 2
Number of atomic orbitals: 26
Number of bands in calculation: 32
Number of valence electrons: 8
Bands to converge: 8

... initialized

Initializing position-dependent things.

Creating initial wave functions:
  26 bands from LCAO basis set
  6 bands from random numbers

                    
                    
                    
                    
           Si       
                    
       Si           
                    
                    
                    
                    

Positions:
   0 Si     0.000000    0.000000    0.000000    ( 0.0000,  0.0000,  0.0000)
   1 Si     1.357500    1.357500    1.357500    ( 0.0000,  0.0000,  0.0000)

Unit cell:
           periodic     x           y           z      points  spacing
  1. axis:    yes    0.000000    2.715000    2.715000    18     0.1742
  2. axis:    yes    2.715000    0.000000    2.715000    18     0.1742
  3. axis:    yes    2.715000    2.715000    0.000000    18     0.1742

  Lengths:   3.839590   3.839590   3.839590
  Angles:   60.000000  60.000000  60.000000

Effective grid spacing dv^(1/3) = 0.1900

     iter     time        total  log10-change:
                         energy  eigst   dens
iter:   1 14:21:24    -5.125061  -1.11       c  -0.0,+0.0,-0.0
iter:   2 14:21:25    -5.125779  -3.34       c  -0.0,+0.0,-0.0
iter:   3 14:21:26    -5.125788c -5.10       c  -0.0,+0.0,-0.0
iter:   4 14:21:27    -5.125788c -6.63       c  -0.0,+0.0,-0.0
iter:   5 14:21:27    -5.125788c -8.07c      c  -0.0,+0.0,-0.0

Converged after 5 iterations.

Dipole moment: (-2.924557, -2.924557, -2.924557) |e|*Ang

Total magnetic moment: (-0.000000, 0.000000, -0.000000)
Local magnetic moments:
   0 Si ( 0.000000, -0.000000,  0.000000)
   1 Si ( 0.000000, -0.000000,  0.000000)

Energy contributions relative to reference atoms: (reference = -15717.426366)

Kinetic:        +22.319902
Potential:      -13.719942
External:        +0.000000
XC:             -13.705414
Entropy (-ST):   -0.000000
Local:           -0.020333
--------------------------
Free energy:     -5.125788
Extrapolated:    -5.125788

Showing only first 2 kpts
 Kpt  Band  Eigenvalues  Occupancy
  0     2     -1.86025    1.00000
  0     3     -1.86025    1.00000
  0     4      3.92614    1.00000
  0     5      3.92614    1.00000

  1     2     -1.85000    1.00000
  1     3     -1.85000    1.00000
  1     4      3.92702    1.00000
  1     5      3.92702    1.00000


Fermi level: 5.56216

Gap: 0.455 eV
Transition (v -> c):
  (s=0, k=45, n=7, [0.00, 0.00, 0.00]) -> (s=0, k=91, n=8, [0.43, 0.00, 0.43])
Timing:                              incl.     excl.
-----------------------------------------------------------
Hamiltonian:                         0.081     0.001   0.0% |
 Atomic:                             0.049     0.049   0.1% |
  XC Correction:                     0.000     0.000   0.0% |
 Calculate atomic Hamiltonians:      0.001     0.001   0.0% |
 Communicate:                        0.000     0.000   0.0% |
 Initialize Hamiltonian:             0.000     0.000   0.0% |
 Poisson:                            0.000     0.000   0.0% |
 XC 3D grid:                         0.030     0.030   0.1% |
LCAO initialization:                 1.416     0.020   0.0% |
 LCAO eigensolver:                   0.332     0.003   0.0% |
  DenseAtomicCorrection:             0.014     0.014   0.0% |
  Distribute overlap matrix:         0.003     0.003   0.0% |
  Orbital Layouts:                   0.020     0.020   0.0% |
  Potential matrix:                  0.255     0.255   0.6% |
  Sum over cells:                    0.036     0.036   0.1% |
 LCAO to grid:                       0.883     0.883   2.0% ||
 Set positions (LCAO WFS):           0.181     0.031   0.1% |
  Basic WFS set positions:           0.000     0.000   0.0% |
  Basis functions set positions:     0.000     0.000   0.0% |
  P tci:                             0.060     0.060   0.1% |
  ST tci:                            0.076     0.076   0.2% |
  mktci:                             0.014     0.014   0.0% |
PWDescriptor:                        0.161     0.161   0.4% |
SCF-cycle:                          31.681     1.309   2.9% ||
 Davidson:                          26.353     3.121   7.0% |--|
  Apply H:                           4.808     4.808  10.8% |---|
  Subspace diag:                     5.732     0.051   0.1% |
   calc_h_matrix:                    5.293     0.463   1.0% |
    Apply H:                         4.831     4.831  10.9% |---|
   diagonalize:                      0.163     0.163   0.4% |
   rotate_psi:                       0.225     0.225   0.5% |
  calc. matrices:                   11.822     2.256   5.1% |-|
   Apply H:                          9.566     9.566  21.5% |--------|
  diagonalize:                       0.500     0.500   1.1% |
  rotate_psi:                        0.370     0.370   0.8% |
 Density:                            2.966     0.000   0.0% |
  Atomic density matrices:           0.171     0.171   0.4% |
  Mix:                               0.097     0.097   0.2% |
  Multipole moments:                 0.002     0.002   0.0% |
  Pseudo density:                    2.696     2.696   6.1% |-|
   Symmetrize density:               0.000     0.000   0.0% |
 Hamiltonian:                        0.996     0.007   0.0% |
  Atomic:                            0.594     0.594   1.3% ||
   XC Correction:                    0.000     0.000   0.0% |
  Calculate atomic Hamiltonians:     0.018     0.018   0.0% |
  Communicate:                       0.001     0.001   0.0% |
  Poisson:                           0.003     0.003   0.0% |
  XC 3D grid:                        0.373     0.373   0.8% |
 Orthonormalize:                     0.056     0.004   0.0% |
  calc_s_matrix:                     0.018     0.018   0.0% |
  inverse-cholesky:                  0.004     0.004   0.0% |
  projections:                       0.022     0.022   0.0% |
  rotate_psi_s:                      0.008     0.008   0.0% |
Set symmetry:                        0.000     0.000   0.0% |
Other:                              11.078    11.078  24.9% |---------|
-----------------------------------------------------------
Total:                                        44.417 100.0%

Memory usage: 177.36 MiB
Date: Tue Mar 14 14:21:28 2023
Timing:                              incl.     excl.
-----------------------------------------------------------
Hamiltonian:                         0.084     0.000   0.0% |
 Atomic:                             0.052     0.052   0.6% |
  XC Correction:                     0.000     0.000   0.0% |
 Calculate atomic Hamiltonians:      0.001     0.001   0.0% |
 Communicate:                        0.000     0.000   0.0% |
 Initialize Hamiltonian:             0.000     0.000   0.0% |
 Poisson:                            0.000     0.000   0.0% |
 XC 3D grid:                         0.029     0.029   0.3% |
LCAO initialization:                 3.399     0.088   1.0% |
 LCAO eigensolver:                   1.597     0.001   0.0% |
  DenseAtomicCorrection:             0.004     0.004   0.0% |
  Distribute overlap matrix:         0.001     0.001   0.0% |
  Orbital Layouts:                   0.007     0.007   0.1% |
  Potential matrix:                  1.565     1.565  17.7% |------|
  Sum over cells:                    0.019     0.019   0.2% |
 LCAO to grid:                       1.569     1.569  17.8% |------|
 Set positions (LCAO WFS):           0.146     0.024   0.3% |
  Basic WFS set positions:           0.000     0.000   0.0% |
  Basis functions set positions:     0.000     0.000   0.0% |
  P tci:                             0.034     0.034   0.4% |
  ST tci:                            0.065     0.065   0.7% |
  mktci:                             0.023     0.023   0.3% |
PWDescriptor:                        0.003     0.003   0.0% |
SCF-cycle:                           4.741     0.840   9.5% |---|
 Davidson:                           3.882     0.389   4.4% |-|
  Apply H:                           0.702     0.702   8.0% |--|
  Subspace diag:                     0.849     0.004   0.0% |
   calc_h_matrix:                    0.769     0.063   0.7% |
    Apply H:                         0.706     0.706   8.0% |--|
   diagonalize:                      0.032     0.032   0.4% |
   rotate_psi:                       0.044     0.044   0.5% |
  calc. matrices:                    1.732     0.328   3.7% ||
   Apply H:                          1.404     1.404  15.9% |-----|
  diagonalize:                       0.125     0.125   1.4% ||
  rotate_psi:                        0.085     0.085   1.0% |
 Orthonormalize:                     0.019     0.001   0.0% |
  calc_s_matrix:                     0.007     0.007   0.1% |
  inverse-cholesky:                  0.001     0.001   0.0% |
  projections:                       0.006     0.006   0.1% |
  rotate_psi_s:                      0.004     0.004   0.1% |
Set symmetry:                        0.000     0.000   0.0% |
Other:                               0.597     0.597   6.8% |--|
-----------------------------------------------------------
Total:                                         8.823 100.0%

Memory usage: 177.36 MiB
Date: Tue Mar 14 14:21:28 2023

------------------------------------------------------------
Sender: LSF System <lsfadmin@hpc.dtu.dk>
Subject: Job 15644791: <calc_of_eig_along_high_sym_including_spin_orbit.py> in cluster <dcc> Done

Job <calc_of_eig_along_high_sym_including_spin_orbit.py> was submitted from host <n-62-27-17> by user <s183553> in cluster <dcc> at Tue Mar 14 14:20:34 2023
Job was executed on host(s) <12*n-62-28-26>, in queue <hpc>, as user <s183553> in cluster <dcc> at Tue Mar 14 14:20:35 2023
</zhome/06/4/136859> was used as the home directory.
</zhome/06/4/136859/dft_course/CX5> was used as the working directory.
Started at Tue Mar 14 14:20:35 2023
Terminated at Tue Mar 14 14:21:28 2023
Results reported at Tue Mar 14 14:21:28 2023

Your job looked like:

------------------------------------------------------------
# LSBATCH: User input
#!/bin/bash -l
id=$LSB_JOBID
mq=/zhome/06/4/136859/dft_course/.myqueue/lsf-$id
source /zhome/06/4/136859/dft_venv/bin/activate
echo "venv: /zhome/06/4/136859/dft_venv/bin/activate"
(touch $mq-0 && \
 cd '/zhome/06/4/136859/dft_course/CX5' && \
 mpiexec python3 calc_of_eig_along_high_sym_including_spin_orbit.py && \
 touch $mq-1) || \
(touch $mq-2; exit 1)

------------------------------------------------------------

Successfully completed.

Resource usage summary:

    CPU time :                                   549.21 sec.
    Max Memory :                                 1138 MB
    Average Memory :                             1138.00 MB
    Total Requested Memory :                     73728.00 MB
    Delta Memory :                               72590.00 MB
    Max Swap :                                   -
    Max Processes :                              17
    Max Threads :                                57
    Run time :                                   53 sec.
    Turnaround time :                            54 sec.

The output (if any) is above this job summary.



PS:

Read file </zhome/06/4/136859/dft_course/CX5/calc_of_eig_along_high_sym_including_spin_orbit.py.15644791.err> for stderr output of this job.

