
  ___ ___ ___ _ _ _  
 |   |   |_  | | | | 
 | | | | | . | | | | 
 |__ |  _|___|_____|  22.8.1b1
 |___|_|             

User:   s183553@gbarlogin1
Date:   Tue Mar 14 14:10:10 2023
Arch:   x86_64
Pid:    15233
CWD:    /zhome/06/4/136859/dft_course/CX5
Python: 3.8.5
gpaw:   /zhome/06/4/136859/dft_venv/gpaw/gpaw (3d6f5cf366)
_gpaw:  /zhome/06/4/136859/dft_venv/gpaw/
        _gpaw.cpython-38-x86_64-linux-gnu.so (3d6f5cf366)
ase:    /zhome/06/4/136859/dft_venv/ase/ase (version 3.23.0b1-d4570ca33a)
numpy:  /zhome/06/4/136859/dft_venv/lib/python3.8/site-packages/numpy (version 1.24.1)
scipy:  /zhome/06/4/136859/dft_venv/lib/python3.8/site-packages/scipy (version 1.10.0)
libxc:  4.3.4
units:  Angstrom and eV
cores: 1
OpenMP: False
OMP_NUM_THREADS: 1

Input parameters:
  kpts: [8 8 8]
  mode: {ecut: 200.0,
         name: pw}
  occupations: {fixmagmom: False,
                name: fermi-dirac,
                width: 0.01}
  random: True
  xc: PBE

System changes: positions, numbers, cell, pbc, initial_charges, initial_magmoms 

Initialize ...

species:
  Si:
    name: Silicon
    id: ee77bee481871cc2cb65ac61239ccafa
    Z: 14.0
    valence: 4
    core: 10
    charge: 0.0
    file: /zhome/86/d/1666/PAW/gpaw-setups-0.9.20000/Si.PBE.gz
    compensation charges: {type: gauss,
                           rc: 0.33,
                           lmax: 2}
    cutoffs: {filter: 1.86,
              core: 2.06}
    valence states:
      #              energy  rcut
      - 3s(2.00)   -10.812   1.058
      - 3p(2.00)    -4.081   1.058
      -  s          16.399   1.058
      -  p          23.130   1.058
      -  d           0.000   1.058
  
    # Using partial waves for Si as LCAO basis

Reference energy: -15772.688500  # eV

Spin-paired calculation

Convergence criteria:
 Maximum [total energy] change in last 3 cyles: 0.0005 eV / valence electron
 Maximum integral of absolute [dens]ity change: 0.0001 electrons / valence electron
 Maximum integral of absolute [eigenst]ate change: 4e-08 eV^2 / valence electron
 Maximum number of scf [iter]ations: 333
 (Square brackets indicate name in SCF output, whereas a 'c' in
 the SCF output indicates the quantity has converged.)

Symmetries present (total): 24

  ( 1  0  0)  ( 1  0  0)  ( 1  0 -1)  ( 1  0 -1)  ( 1 -1  0)  ( 1 -1  0)
  ( 0  1  0)  ( 0  0  1)  ( 0  1 -1)  ( 0  0 -1)  ( 0 -1  1)  ( 0 -1  0)
  ( 0  0  1)  ( 0  1  0)  ( 0  0 -1)  ( 0  1 -1)  ( 0 -1  0)  ( 0 -1  1)

  ( 0  1  0)  ( 0  1  0)  ( 0  1 -1)  ( 0  1 -1)  ( 0  0  1)  ( 0  0  1)
  ( 1  0  0)  ( 0  0  1)  ( 1  0 -1)  ( 0  0 -1)  ( 1  0  0)  ( 0  1  0)
  ( 0  0  1)  ( 1  0  0)  ( 0  0 -1)  ( 1  0 -1)  ( 0  1  0)  ( 1  0  0)

  ( 0  0 -1)  ( 0  0 -1)  ( 0 -1  1)  ( 0 -1  1)  ( 0 -1  0)  ( 0 -1  0)
  ( 1  0 -1)  ( 0  1 -1)  ( 1 -1  0)  ( 0 -1  0)  ( 1 -1  0)  ( 0 -1  1)
  ( 0  1 -1)  ( 1  0 -1)  ( 0 -1  0)  ( 1 -1  0)  ( 0 -1  1)  ( 1 -1  0)

  (-1  1  0)  (-1  1  0)  (-1  0  1)  (-1  0  1)  (-1  0  0)  (-1  0  0)
  (-1  0  1)  (-1  0  0)  (-1  1  0)  (-1  0  0)  (-1  1  0)  (-1  0  1)
  (-1  0  0)  (-1  0  1)  (-1  0  0)  (-1  1  0)  (-1  0  1)  (-1  1  0)
Note: your k-points are not as symmetric as your crystal!

512 k-points: 8 x 8 x 8 Monkhorst-Pack grid
60 k-points in the irreducible part of the Brillouin zone
       k-points in crystal coordinates                weights
   0:     0.06250000    0.06250000   -0.06250000          6/512
   1:     0.06250000    0.06250000    0.06250000          2/512
   2:     0.18750000   -0.06250000   -0.06250000          6/512
   3:     0.18750000    0.06250000   -0.18750000         12/512
   4:     0.18750000    0.06250000   -0.06250000         12/512
   5:     0.18750000    0.06250000    0.06250000          6/512
   6:     0.18750000    0.18750000   -0.18750000          6/512
   7:     0.18750000    0.18750000   -0.06250000          6/512
   8:     0.18750000    0.18750000    0.06250000          6/512
   9:     0.18750000    0.18750000    0.18750000          2/512
          ...
  59:     0.43750000    0.43750000    0.43750000          2/512

Wave functions: Plane wave expansion
  Cutoff energy: 200.000 eV
  Number of coefficients (min, max): 251, 271
  Pulay-stress correction: 0.000000 eV/Ang^3 (de/decut=0.000000)
  Using FFTW library
  ScaLapack parameters: grid=1x1, blocksize=None
  Wavefunction extrapolation:
    Improved wavefunction reuse through dual PAW basis 

Occupation numbers: Fermi-Dirac:
  width: 0.0100  # eV
 

Eigensolver
   Davidson(niter=2) 

Densities:
  Coarse grid: 14*14*14 grid
  Fine grid: 28*28*28 grid
  Total Charge: 0.000000 

Density mixing:
  Method: separate
  Backend: pulay
  Linear mixing parameter: 0.05
  old densities: 5
  Damping of long wavelength oscillations: 50 

Hamiltonian:
  XC and Coulomb potentials evaluated on a 28*28*28 grid
  Using the PBE Exchange-Correlation functional
  External potential:
    NoExternalPotential
 

XC parameters: PBE with 2 nearest neighbor stencil

Memory estimate:
  Process memory now: 124.76 MiB
  Calculator: 5.63 MiB
    Density: 1.03 MiB
      Arrays: 0.54 MiB
      Localized functions: 0.27 MiB
      Mixer: 0.21 MiB
    Hamiltonian: 0.36 MiB
      Arrays: 0.36 MiB
      XC: 0.00 MiB
      Poisson: 0.00 MiB
      vbar: 0.01 MiB
    Wavefunctions: 4.24 MiB
      Arrays psit_nG: 1.98 MiB
      Eigensolver: 0.06 MiB
      Projections: 0.19 MiB
      Projectors: 1.65 MiB
      PW-descriptor: 0.35 MiB

Total number of cores used: 1

Number of atoms: 2
Number of atomic orbitals: 8
Number of bands in calculation: 8
Number of valence electrons: 8
Bands to converge: occupied

... initialized

Initializing position-dependent things.

Density initialized from atomic densities
Creating initial wave functions:
  8 bands from LCAO basis set

                    
                    
                    
                    
           Si       
                    
       Si           
                    
                    
                    
                    

Positions:
   0 Si     0.000000    0.000000    0.000000    ( 0.0000,  0.0000,  0.0000)
   1 Si     1.357500    1.357500    1.357500    ( 0.0000,  0.0000,  0.0000)

Unit cell:
           periodic     x           y           z      points  spacing
  1. axis:    yes    0.000000    2.715000    2.715000    14     0.2239
  2. axis:    yes    2.715000    0.000000    2.715000    14     0.2239
  3. axis:    yes    2.715000    2.715000    0.000000    14     0.2239

  Lengths:   3.839590   3.839590   3.839590
  Angles:   60.000000  60.000000  60.000000

Effective grid spacing dv^(1/3) = 0.2443

     iter     time        total  log10-change:
                         energy  eigst   dens
iter:   1 14:10:13   -10.866142
iter:   2 14:10:13   -10.866963  -1.97  -0.80
iter:   3 14:10:14   -11.215354  -1.07  -0.81
iter:   4 14:10:14   -10.828476  -2.03  -0.61
iter:   5 14:10:15   -10.806426  -3.00  -1.21
iter:   6 14:10:16   -10.781924  -2.69  -1.36
iter:   7 14:10:16   -10.781808  -4.32  -2.48
iter:   8 14:10:17   -10.781808c -5.40  -2.93
iter:   9 14:10:17   -10.781948c -5.24  -2.93
iter:  10 14:10:18   -10.781855c -5.94  -2.48
iter:  11 14:10:18   -10.781806c -5.89  -2.70
iter:  12 14:10:19   -10.781799c -6.00  -3.02
iter:  13 14:10:19   -10.781799c -7.38  -4.60c
iter:  14 14:10:20   -10.781799c -8.20c -4.56c

Converged after 14 iterations.

Dipole moment: (-2.923916, -2.923916, -2.923916) |e|*Ang

Energy contributions relative to reference atoms: (reference = -15772.688500)

Kinetic:        +15.687448
Potential:      -13.753344
External:        +0.000000
XC:             -12.665863
Entropy (-ST):   -0.000000
Local:           -0.050040
--------------------------
Free energy:    -10.781799
Extrapolated:   -10.781799

Showing only first 2 kpts
 Kpt  Band  Eigenvalues  Occupancy
  0     2      4.79614    2.00000
  0     3      4.96446    2.00000
  0     4      7.71350    0.00000
  0     5      8.33100    0.00000

  1     2      5.23213    2.00000
  1     3      5.23213    2.00000
  1     4      7.94126    0.00000
  1     5      8.00074    0.00000


Fermi level: 5.84558

Gap: 0.814 eV
Transition (v -> c):
  (s=0, k=1, n=3, [0.06, 0.06, 0.06]) -> (s=0, k=55, n=4, [0.44, 0.44, -0.06])
Writing to Si_gs.gpw (mode='')

Timing:                              incl.     excl.
-----------------------------------------------------------
Hamiltonian:                         0.095     0.000   0.0% |
 Atomic:                             0.080     0.001   0.0% |
  XC Correction:                     0.079     0.079   0.0% |
 Calculate atomic Hamiltonians:      0.001     0.001   0.0% |
 Communicate:                        0.000     0.000   0.0% |
 Initialize Hamiltonian:             0.000     0.000   0.0% |
 Poisson:                            0.000     0.000   0.0% |
 XC 3D grid:                         0.013     0.013   0.0% |
LCAO initialization:                 0.610     0.024   0.0% |
 LCAO eigensolver:                   0.130     0.003   0.0% |
  Calculate projections:             0.002     0.002   0.0% |
  DenseAtomicCorrection:             0.007     0.007   0.0% |
  Distribute overlap matrix:         0.001     0.001   0.0% |
  Orbital Layouts:                   0.066     0.066   0.0% |
  Potential matrix:                  0.036     0.036   0.0% |
  Sum over cells:                    0.016     0.016   0.0% |
 LCAO to grid:                       0.139     0.139   0.0% |
 Set positions (LCAO WFS):           0.316     0.050   0.0% |
  Basic WFS set positions:           0.002     0.002   0.0% |
  Basis functions set positions:     0.000     0.000   0.0% |
  P tci:                             0.105     0.105   0.0% |
  ST tci:                            0.140     0.140   0.0% |
  mktci:                             0.019     0.019   0.0% |
PWDescriptor:                        0.059     0.059   0.0% |
SCF-cycle:                           7.653     0.230   0.0% |
 Davidson:                           5.893     1.729   0.0% |
  Apply H:                           0.513     0.444   0.0% |
   HMM T:                            0.069     0.069   0.0% |
  Subspace diag:                     1.016     0.071   0.0% |
   calc_h_matrix:                    0.721     0.200   0.0% |
    Apply H:                         0.521     0.447   0.0% |
     HMM T:                          0.074     0.074   0.0% |
   diagonalize:                      0.144     0.144   0.0% |
   rotate_psi:                       0.079     0.079   0.0% |
  calc. matrices:                    2.187     1.162   0.0% |
   Apply H:                          1.025     0.884   0.0% |
    HMM T:                           0.141     0.141   0.0% |
  diagonalize:                       0.346     0.346   0.0% |
  rotate_psi:                        0.103     0.103   0.0% |
 Density:                            0.322     0.000   0.0% |
  Atomic density matrices:           0.044     0.044   0.0% |
  Mix:                               0.028     0.028   0.0% |
  Multipole moments:                 0.002     0.002   0.0% |
  Pseudo density:                    0.248     0.188   0.0% |
   Symmetrize density:               0.060     0.060   0.0% |
 Hamiltonian:                        1.175     0.004   0.0% |
  Atomic:                            1.000     0.010   0.0% |
   XC Correction:                    0.990     0.990   0.0% |
  Calculate atomic Hamiltonians:     0.009     0.009   0.0% |
  Communicate:                       0.000     0.000   0.0% |
  Poisson:                           0.002     0.002   0.0% |
  XC 3D grid:                        0.159     0.159   0.0% |
 Orthonormalize:                     0.034     0.005   0.0% |
  calc_s_matrix:                     0.010     0.010   0.0% |
  inverse-cholesky:                  0.005     0.005   0.0% |
  projections:                       0.011     0.011   0.0% |
  rotate_psi_s:                      0.002     0.002   0.0% |
Set symmetry:                        0.055     0.055   0.0% |
Other:                           13636.554 13636.554  99.9% |---------------------------------------|
-----------------------------------------------------------
Total:                                     13645.026 100.0%

Memory usage: 131.07 MiB
Date: Tue Mar 14 17:57:35 2023

Date: Tue Mar 14 14:16:57 2023
